This is a multi-thread run using 32 threads
/afs/crc.nd.edu/user/t/tnguye23/qchem111/exe/qcprog.exe .formic.in.29206.qcin.1 /scratch365/tnguye23/tmp/qchem29206/

garamon.crc.nd.edu 129.74.85
Q-Chem Developer Version! Running on 129.74.85.*
                  Welcome to Q-Chem
     A Quantum Leap Into The Future Of Chemistry


 Q-Chem 4.4, Q-Chem, Inc., Pleasanton, CA (2016)

 Y. Shao,  Z. Gan,  E. Epifanovsky,  A. T. B. Gilbert,  M. Wormit,  
 J. Kussmann,  A. W. Lange,  A. Behn,  J. Deng,  X. Feng,  D. Ghosh,  
 M. Goldey,  P. R. Horn,  L. D. Jacobson,  I. Kaliman,  F.Rob,  
 R. Z. Khaliullin,  T. Kus,  A. Landau,  J. Liu,  E. I. Proynov,  Y. M. Rhee,  
 R. M. Richard,  M. A. Rohrdanz,  R. P. Steele,  E. J. Sundstrom,  
 H. L. Woodcock III,  P. M. Zimmerman,  D. Zuev,  B. Albrecht,  E. Alguire,  
 B. Austin,  S. A. Baeppler,  G. J. O. Beran,  Y. A. Bernard,  E. Berquist,  
 K. Brandhorst,  K. B. Bravaya,  S. T. Brown,  D. Casanova,  C.-M. Chang,  
 Y. Chen,  S. H. Chien,  K. D. Closser,  M. P. Coons,  D. L. Crittenden,  
 S. Dasgupta,  M. Diedenhofen,  R. A. DiStasio Jr.,  H. Do,  A. D. Dutoi,  
 R. G. Edgar,  P.-T. Fang,  S. Fatehi,  Q. Feng,  L. Fusti-Molnar,  
 A. Ghysels,  A. Golubeva-Zadorozhnaya,  J. Gomes,  A. Gunina,  
 M. W. D. Hanson-Heine,  P. H. P. Harbach,  A. W. Hauser,  E. G. Hohenstein,  
 Z. C. Holden,  K. Hui,  T.-C. Jagau,  H. Ji,  B. Kaduk,  K. Khistyaev,  
 Jaehoon Kim,  Jihan Kim,  R. A. King,  P. Klunzinger,  D. Kosenkov,  
 T. Kowalczyk,  C. M. Krauter,  A. Kunitsa,  K. U. Lao,  A. Laurent,  
 K. V. Lawler,  D. Lefrancois,  S. Lehtola,  S. V. Levchenko,  C. Y. Lin,  
 Y.-S. Lin,  F. Liu,  E. Livshits,  R. C. Lochan,  A. Luenser,  P. Manohar,  
 S. F. Manzer,  S.-P. Mao,  Y. Mao,  N. Mardirossian,  A. V. Marenich,  
 L. A. Martinez-Martinez,  S. A. Maurer,  N. J. Mayhall,  J.-M. Mewes,  
 A. F. Morrison,  K. Nanda,  C. M. Oana,  R. Olivares-Amaya,  D. P. O'Neill,  
 J. A. Parkhill,  T. M. Perrine,  R. Peverati,  P. A. Pieniazek,  F. Plasser,  
 A. Prociuk,  D. R. Rehn,  E. Rosta,  N. J. Russ,  N. Sergueev,  
 S. M. Sharada,  S. Sharma,  D. W. Small,  A. Sodt,  T. Stauch,  T. Stein,  
 D. Stuck,  Y.-C. Su,  A. J. W. Thom,  T. Tsuchimochi,  L. Vogt,  O. Vydrov,  
 T. Wang,  M. A. Watson,  J. Wenzel,  A. White,  C. F. Williams,  
 V. Vanovschi,  S. Yeganeh,  S. R. Yost,  Z.-Q. You,  I. Y. Zhang,  X. Zhang,  
 Y. Zhao,  B. R. Brooks,  G. K. L. Chan,  D. M. Chipman,  C. J. Cramer,  
 W. A. Goddard III,  M. S. Gordon,  W. J. Hehre,  A. Klamt,  
 H. F. Schaefer III,  M. W. Schmidt,  C. D. Sherrill,  D. G. Truhlar,  
 A. Warshel,  X. Xu,  A. Aspuru-Guzik,  R. Baer,  A. T. Bell,  N. A. Besley,  
 J.-D. Chai,  A. Dreuw,  B. D. Dunietz,  T. R. Furlani,  S. R. Gwaltney,  
 C.-P. Hsu,  Y. Jung,  J. Kong,  D. S. Lambrecht,  W. Liang,  C. Ochsenfeld,  
 V. A. Rassolov,  L. V. Slipchenko,  J. E. Subotnik,  T. Van Voorhis,  
 J. M. Herbert,  A. I. Krylov,  P. M. W. Gill,  M. Head-Gordon

 Contributors to earlier versions of Q-Chem not listed above: 
 R. D. Adamson,  J. Baker,  E. F. C. Byrd,  A. K. Chakraborty,  C.-L. Cheng,  
 H. Dachsel,  R. J. Doerksen,  G. Hawkins,  A. Heyden,  S. Hirata,  
 G. Kedziora,  F. J. Keil,  C. Kelley,  P. P. Korambath,  W. Kurlancheek,  
 A. M. Lee,  M. S. Lee,  D. Liotard,  I. Lotan,  P. E. Maslen,  N. Nair,  
 D. Neuhauser,  R. Olson,  B. Peters,  J. Ritchie,  N. E. Schultz,  
 N. Shenvi,  A. C. Simmonett,  K. S. Thanthiriwatte,  Q. Wu,  W. Zhang

 Please cite Q-Chem as follows:
 Y. Shao et al., Mol. Phys. 113, 184-215 (2015)
 DOI: 10.1080/00268976.2014.952696

 Q-Chem 4.4.1 for Intel X86 EM64T Linux

 Parts of Q-Chem use Armadillo 5.200.1 (Boston Tea Smuggler).
 http://arma.sourceforge.net/

 Q-Chem begins on Fri Nov  4 15:49:00 2016  

garamon.crc.nd.edu
Host: 0

     Scratch files written to /scratch365/tnguye23/tmp/qchem29206//

Checking the input file for inconsistencies... 	...done.

--------------------------------------------------------------
User input:
--------------------------------------------------------------
$molecule
0 1
O          1.45700       -0.06080        0.51300
C          1.92776        0.24064       -0.56750
O          3.25265        0.29382       -0.77255
H          1.36836        0.49797       -1.47872
H          3.68026        0.85182        0.22298
$end

$rem
SCF_GUESS core
GEN_SCFMAN true 
Basis sto-3g
AUX_BASIS rimp2-cc-pvdz 
PURECART 1111
xc_grid 1
RTTDDFT 1
RTISO 0
EXCHANGE HF
SYMMETRY OFF
SYM_IGNORE TRUE
SCF_ALGORITHM DIIS
UNRESTRICTED FALSE
GHF FALSE
COMPLEX FALSE
SCF_GUESS_MIX 0
SCF_FINAL_PRINT TRUE
COMPLEX_MIX 0
GEN_CIS_ITER 200 
MAX_SCF_CYCLES 200
$end

--------------------------------------------------------------
 ----------------------------------------------------------------
             Standard Nuclear Orientation (Angstroms)
    I     Atom           X                Y                Z
 ----------------------------------------------------------------
    1      O       1.4570000000    -0.0608000000     0.5130000000
    2      C       1.9277600000     0.2406400000    -0.5675000000
    3      O       3.2526500000     0.2938200000    -0.7725500000
    4      H       1.3683600000     0.4979700000    -1.4787200000
    5      H       3.6802600000     0.8518200000     0.2229800000
 ----------------------------------------------------------------
 Nuclear Repulsion Energy =    68.9565044619 hartrees
 There are       12 alpha and       12 beta electrons

 Q-Chem warning in module /afs/crc.nd.edu/user/t/tnguye23/qchem111/forms1/BasisType.C, line 1555:

 You are not using the predefined 5D/6D in this basis set.

 Requested basis set is STO-3G
 There are 8 shells and 17 basis functions

 Total QAlloc Memory Limit   2000 MB
 Mega-Array Size        61 MB
 MEM_STATIC part        62 MB

                       Distance Matrix (Angstroms)
             O (  1)   C (  2)   O (  3)   H (  4)
   C (  2)  1.216537
   O (  3)  2.236683  1.341718
   H (  4)  2.070514  1.099759  2.022598
   H (  5)  2.420717  2.017339  1.218727  2.892382

 Requested basis set is rimp2-cc-pVDZ
 There are 66 shells and 196 basis functions
 A cutoff of  1.0D-08 yielded     35 shell pairs
 There are       170 function pairs

 -------------------------------------------------------
 OpenMP Integral Computing Module                       
 Release: version 1.0, May 2013, Q-Chem Inc. Pittsburgh 
 -------------------------------------------------------
 Integral Job Info:
 Integral job number is                      11
 Integral operator is                         1
 short-range coefficients                     0
 long-range coefficients              100000000
 Omega coefficients                           0
 if combine SR and LR in K                    0
 Integral screening is                        0
 Integral computing path is                   2
 max size of driver memory is            800000
 size of driver memory is                 45569
 size of scratch memory is               945100
 max col of scratch BK array                289
 max len of scratch array in speh3           22
 max len of scratch index in speh4            8
 max int batch size is                      520
 min int batch size is                       52
 fixed nKL is                                52
 max L of basis functions is                  1
 order of int derivative is                   0
 number of shells is                          8
 number of basis is                          17
 number of cartesian basis is                17
 number of contracted shell pairs            35
 number of primitive shell pairs            269
 maxK2 (contraction) of shell pair            9
 max number of K2 of shell pair               1
 max number of CS2 of shell pair              7
 max number of PS2 of shell pair             63
 mem total for path MDJ                    8742
 -------------------------------------------------------
 Smallest overlap matrix eigenvalue = 2.46E-01

 Scale SEOQF with 1.000000e-01/1.000000e+00/1.000000e+00

 Standard Electronic Orientation quadrupole field applied
 Nucleus-field energy     =    -0.0000000054 hartrees
 Guess MOs from core Hamiltonian diagonalization
    ==================================================
              Start of Object-Oriented SCFman         
               Written by Eric Jon Sundstrom          
                        2008-2012                     
    ==================================================
Running Object-Oriented RHF
 ---------------------------------------
  Cycle       Energy         DIIS error
 ---------------------------------------
    1    -180.3855695302      1.68e-01     00000 
    2    -183.8966999176      1.92e-01     00000 
    3    -186.0237075369      3.99e-02     00000 
    4    -186.1414475886      1.44e-02     00000 
    5    -186.1592042871      5.69e-03     00000 
    6    -186.1635157904      4.03e-03     00000 
    7    -186.1648285243      5.48e-04     00000 
    8    -186.1648688159      1.46e-04     00000 
    9    -186.1648723618      5.40e-05     00000 
   10    -186.1648731030      2.14e-05     00000 
   11    -186.1648732392      7.81e-06      Convergence criterion met
 ---------------------------------------
Timing the normal SCF step: 0.00s (wall), 1.00s (cpu)
Entering TDSCF...

===================================
|  Realtime TDSCF module          |
===================================
| J. Parkhill, T. Nguyen          |
| J. Koh, J. Herr,  K. Yao        |
===================================
| Refs: 10.1021/acs.jctc.5b00262  |
|       10.1063/1.4916822         |
===================================
n_ao:17 n_mo 17 n_e/2 13
CONDITIONS:-----------
RIFock: 0
Corr: 1
GML (Gell-Man Low): 0.00
Mp2NOGuess: 0
TCLOn: 0
Temp: 8000.00
InitialCondition: 0
StartFromSetman: 0
MaxIter: 2
Restart: 0
FieldAmplitude: 0.00
ApplyImpulse: 1
ApplyCw: 0
FieldFreq: 1.10
Tau: 0.07
tOn: 0.49
FieldVector
   1.0000   1.0000   1.0000
THRESHOLDS: -----------
dt: 0.01
ActiveSpace: 0
ActiveSpaceCutoff: 0.55
UpdateFockMatrix: 1
IncFock : 0
Stabilize: 2
LOGGING:--------------
SerialNumber: 0
logprefix: ./logs/
Stutter: 0
StatusEvery: 15
DipolesEvery: 2
Print: 0
SaveDipoles: 1
SaveEvery: 1
WriteDensities: 0
FourierEvery: 100000
FourierZoom: 0.01
SavePopulations: 1
SavePopulationsEvery: 10.00
SaveFockEnergies: 0
SaveFockEvery: 40
======================

Initializing the Liouvillian for 17 orbitals 
Adapting the Fock matrix of Gen_Scfman.
Tr(PS): 12.00 NOcc12
Dipole moment x(Ao):23.17
Dipole moment y(Ao):-0.19
Dipole moment z(Ao):-1.28
Homo->Lumo transition strength:0.43 0.17 -0.48 
Lumo->Homo transition strength:0.43 0.17 -0.48 
Propagating space contains: 24 singlet fermions in 17 orbitals 
Mean field Energy of initial state: -128.049174745
Koopman's Excitation estimate: 0.635527548 (eH) 17.293530762 (eV) 
Finished Calculating the Initial Liouvillian, Energy: -186.143747101
Initial Eigenvalues:
  -20.3201  -20.2793  -11.1785   -1.3779   -1.2657   -0.7794   -0.6231   -0.5741   -0.5430   -0.4316   -0.3661   -0.3558    0.2797    0.4023    0.6438    0.7392    0.9479
Excitation Gap: 0.635532744 Eh : 17.293672159eV
Condition of Fock Matrix: 0.047018904 timestep (should be smaller) 0.010000000
Populations after first Fock build:
    (+1.000e+00,+0.000e+00)    (+1.000e+00,+0.000e+00)    (+1.000e+00,+0.000e+00)    (+1.000e+00,+0.000e+00)    (+1.000e+00,+0.000e+00)    (+1.000e+00,+0.000e+00)    (+1.000e+00,+0.000e+00)    (+1.000e+00,+0.000e+00)    (+1.000e+00,+0.000e+00)    (+1.000e+00,+0.000e+00)    (+1.000e+00,+0.000e+00)    (+1.000e+00,+0.000e+00)    (+1.547e-09,+0.000e+00)    (+1.129e-10,+0.000e+00)    (+1.983e-11,+0.000e+00)    (+4.904e-11,+0.000e+00)    (+1.647e-11,+0.000e+00)
Idempotency: (-0.000000000,0.000000000)
Homo->Lumo transition strength: (-0.425931606,0.000000000)
Initial Dipole:
   23.1719
   -0.1878
   -1.2812
------------------------------
-------- EE2 JAP 2015 --------
--------   Corr 1.000000000    --------
------------------------------
BBGKY0.000000000
RIFock:0.000000000
OMP spec:201307 n_threads 32
Your compiler supports parallism in EE2. You'll be toasty warm soon.
NMO: 17 NAux: 196 Size BpqR 0MB
Size IntCur: 1MB
Building B...

FormedPQR...
BpqR built ...
Mp2 Correlation energy: 0.167287890
Solving the RI-HF problem to ensure self-consistency.
 Fock-Roothan: 10 Ehf-186.166763930
 Fock-Roothan: 20 Ehf-186.166763930
 Fock-Roothan: 30 Ehf-186.166763930
 Fock-Roothan: 40 Ehf-186.166763930
Initial Trace: (12.000000000,0.000000000)
Eigs Before Rebuild
  -20.3212  -20.2802  -11.1789   -1.3779   -1.2657   -0.7794   -0.6230   -0.5740   -0.5429   -0.4316   -0.3660   -0.3558    0.2799    0.4025    0.6439    0.7395    0.9481
Mp2 Correlation energy: 0.167290137
Eigs After Rebuild
  -20.3212  -20.2802  -11.1789   -1.3779   -1.2657   -0.7794   -0.6230   -0.5740   -0.5429   -0.4316   -0.3660   -0.3558    0.2799    0.4025    0.6439    0.7395    0.9481
Inital Rho: 
    (+1.000e+00,+0.000e+00)    (+1.000e+00,+0.000e+00)    (+1.000e+00,+0.000e+00)    (+1.000e+00,+0.000e+00)    (+1.000e+00,+0.000e+00)    (+1.000e+00,+0.000e+00)    (+1.000e+00,+0.000e+00)    (+1.000e+00,+0.000e+00)    (+1.000e+00,+0.000e+00)    (+1.000e+00,+0.000e+00)    (+1.000e+00,+0.000e+00)    (+1.000e+00,+0.000e+00)                      (0,0)                      (0,0)                      (0,0)                      (0,0)                      (0,0)
initial natural occupations
       0.       0.       0.       0.       0.   1.0000   1.0000   1.0000   1.0000   1.0000   1.0000   1.0000   1.0000   1.0000   1.0000   1.0000   1.0000
-------------------------
Omega_hf 0: (0.635633448,0.000000000) (17.296412444,0.000000000)eV
E-H binding energy. (-0.344444144,0.000000000) (-9.372772931,0.000000000)eV
GS MP2 Correlation energy. 0.167290137 4.552182112eV
CIS Transition energy. (-0.344444144,0.000000000) (7.923639513,0.000000000)eV
EE2 Correction: 0.006978816 0.189902644eV
EE2 Correction (2):  0.199395370eV
-------------------------
 Total Estimated Homo Lumo xsition Energy: (8.113542157,0.000000000)eV
 Total Estimated Homo Lumo xsition Energy+MP2: (12.665724269,0.000000000)eV
-------------------------
initial NO change
   5.7605e-04   7.9049e-04   1.0812e-03   2.2461e-03   3.6645e-03  -1.7410e-03  -1.5300e-03  -1.4879e-03  -1.4553e-03  -1.2981e-03  -5.7922e-04  -5.5903e-04  -1.9531e-06   3.4991e-06   8.1507e-06   9.1961e-05   1.9059e-04
Initial RhoDot
    (+1.412e-04,+0.000e+00)    (-1.950e-04,+4.606e-06)    (+1.258e-13,+3.848e-13)                      (0,0)                      (0,0)                      (0,0)                      (0,0)                      (0,0)                      (0,0)                      (0,0)                      (0,0)                      (0,0)                      (0,0)                      (0,0)                      (0,0)                      (0,0)                      (0,0)
    (-1.950e-04,-4.606e-06)    (+1.460e-04,+0.000e+00)    (-1.572e-04,+1.491e-05)    (-5.400e-10,+1.900e-10)                      (0,0)                      (0,0)                      (0,0)                      (0,0)                      (0,0)                      (0,0)                      (0,0)                      (0,0)                      (0,0)                      (0,0)                      (0,0)                      (0,0)                      (0,0)
    (+1.258e-13,-3.848e-13)    (-1.572e-04,-1.491e-05)    (+1.986e-04,+0.000e+00)    (-8.395e-05,+4.267e-05)    (-6.721e-10,-1.343e-10)                      (0,0)                      (0,0)                      (0,0)                      (0,0)                      (0,0)                      (0,0)                      (0,0)                      (0,0)                      (0,0)                      (0,0)                      (0,0)                      (0,0)
                      (0,0)    (-5.400e-10,-1.900e-10)    (-8.395e-05,-4.267e-05)    (+9.528e-03,+0.000e+00)    (-4.498e-05,-2.501e-06)    (-3.807e-10,-6.695e-12)                      (0,0)                      (0,0)                      (0,0)                      (0,0)                      (0,0)                      (0,0)                      (0,0)                      (0,0)                      (0,0)                      (0,0)                      (0,0)
                      (0,0)                      (0,0)    (-6.721e-10,+1.343e-10)    (-4.498e-05,+2.501e-06)    (+4.598e-03,+0.000e+00)    (-3.956e-05,+5.713e-06)    (-4.638e-10,-5.271e-11)                      (0,0)                      (0,0)                      (0,0)                      (0,0)                      (0,0)                      (0,0)                      (0,0)                      (0,0)                      (0,0)                      (0,0)
                      (0,0)                      (0,0)                      (0,0)    (-3.807e-10,+6.695e-12)    (-3.956e-05,-5.713e-06)    (-2.795e-02,+0.000e+00)    (-3.677e-05,-2.723e-06)    (-6.915e-10,+8.429e-12)                      (0,0)                      (0,0)                      (0,0)                      (0,0)                      (0,0)                      (0,0)                      (0,0)                      (0,0)                      (0,0)
                      (0,0)                      (0,0)                      (0,0)                      (0,0)    (-4.638e-10,+5.271e-11)    (-3.677e-05,+2.723e-06)    (-2.896e-02,+0.000e+00)    (-4.121e-05,+2.519e-06)    (-9.299e-10,-2.492e-11)                      (0,0)                      (0,0)                      (0,0)                      (0,0)                      (0,0)                      (0,0)                      (0,0)                      (0,0)
                      (0,0)                      (0,0)                      (0,0)                      (0,0)                      (0,0)    (-6.915e-10,-8.429e-12)    (-4.121e-05,-2.519e-06)    (-7.277e-02,+0.000e+00)    (-4.207e-05,-1.369e-06)    (-1.005e-09,+2.992e-12)                      (0,0)                      (0,0)                      (0,0)                      (0,0)                      (0,0)                      (0,0)                      (0,0)
                      (0,0)                      (0,0)                      (0,0)                      (0,0)                      (0,0)                      (0,0)    (-9.299e-10,+2.492e-11)    (-4.207e-05,+1.369e-06)    (-6.491e-02,+0.000e+00)    (-4.309e-05,-1.314e-06)    (-9.976e-10,-8.124e-11)                      (0,0)                      (0,0)                      (0,0)                      (0,0)                      (0,0)                      (0,0)
                      (0,0)                      (0,0)                      (0,0)                      (0,0)                      (0,0)                      (0,0)                      (0,0)    (-1.005e-09,-2.992e-12)    (-4.309e-05,+1.314e-06)    (-7.440e-02,+0.000e+00)    (-4.539e-05,-2.180e-06)    (-9.214e-10,-3.611e-11)                      (0,0)                      (0,0)                      (0,0)                      (0,0)                      (0,0)
                      (0,0)                      (0,0)                      (0,0)                      (0,0)                      (0,0)                      (0,0)                      (0,0)                      (0,0)    (-9.976e-10,+8.124e-11)    (-4.539e-05,+2.180e-06)    (-8.705e-02,+0.000e+00)    (-4.776e-05,-5.014e-07)    (-7.261e-10,-1.651e-11)                      (0,0)                      (0,0)                      (0,0)                      (0,0)
                      (0,0)                      (0,0)                      (0,0)                      (0,0)                      (0,0)                      (0,0)                      (0,0)                      (0,0)                      (0,0)    (-9.214e-10,+3.611e-11)    (-4.776e-05,+5.014e-07)    (-7.650e-02,+0.000e+00)    (-3.587e-05,-6.979e-07)    (-2.536e-10,+1.248e-10)                      (0,0)                      (0,0)                      (0,0)
                      (0,0)                      (0,0)                      (0,0)                      (0,0)                      (0,0)                      (0,0)                      (0,0)                      (0,0)                      (0,0)                      (0,0)    (-7.261e-10,+1.651e-11)    (-3.587e-05,+6.979e-07)    (+1.832e-01,+0.000e+00)    (-2.836e-05,+4.254e-06)    (+1.588e-10,-9.981e-13)                      (0,0)                      (0,0)
                      (0,0)                      (0,0)                      (0,0)                      (0,0)                      (0,0)                      (0,0)                      (0,0)                      (0,0)                      (0,0)                      (0,0)                      (0,0)    (-2.536e-10,-1.248e-10)    (-2.836e-05,-4.254e-06)    (+1.123e-01,+0.000e+00)    (-2.662e-05,+4.749e-06)    (+1.795e-10,+7.768e-12)                      (0,0)
                      (0,0)                      (0,0)                      (0,0)                      (0,0)                      (0,0)                      (0,0)                      (0,0)                      (0,0)                      (0,0)                      (0,0)                      (0,0)                      (0,0)    (+1.588e-10,+9.981e-13)    (-2.662e-05,-4.749e-06)    (+3.952e-02,+0.000e+00)    (-2.911e-05,-1.571e-06)    (+3.340e-11,-3.322e-11)
                      (0,0)                      (0,0)                      (0,0)                      (0,0)                      (0,0)                      (0,0)                      (0,0)                      (0,0)                      (0,0)                      (0,0)                      (0,0)                      (0,0)                      (0,0)    (+1.795e-10,-7.768e-12)    (-2.911e-05,+1.571e-06)    (+5.406e-02,+0.000e+00)    (-2.833e-05,-1.521e-06)
                      (0,0)                      (0,0)                      (0,0)                      (0,0)                      (0,0)                      (0,0)                      (0,0)                      (0,0)                      (0,0)                      (0,0)                      (0,0)                      (0,0)                      (0,0)                      (0,0)    (+3.340e-11,+3.322e-11)    (-2.833e-05,+1.521e-06)    (+2.880e-02,+0.000e+00)
CIS eigenvalues 
   5.0439e+00   8.1734e+00   9.2048e+00   1.0320e+01   1.1714e+01   1.2804e+01   1.4165e+01   1.4815e+01   1.5034e+01   1.5871e+01   1.6958e+01   1.7577e+01   1.8475e+01   1.8632e+01   1.9398e+01   1.9696e+01   2.0126e+01   2.1121e+01   2.2000e+01   2.2310e+01   2.3148e+01   2.3868e+01   2.4410e+01   2.4695e+01   2.5638e+01   2.5865e+01   2.6159e+01   2.7677e+01   2.9712e+01   3.0083e+01   3.0703e+01   3.1155e+01   3.1558e+01   3.1927e+01   3.3815e+01   3.4566e+01   3.5614e+01   3.7323e+01   4.0454e+01   4.2134e+01   4.3948e+01   4.5930e+01   4.6795e+01   4.9786e+01   5.2525e+01   2.9473e+02   3.0399e+02   3.0454e+02   3.0761e+02   3.1003e+02   5.4148e+02   5.4392e+02   5.5084e+02   5.5152e+02   5.5284e+02   5.5618e+02   5.6079e+02   5.6328e+02   5.6400e+02   5.6951e+02
CIS Vector 5.043922045
Vec
    (-6.587e-05,+0.000e+00)    (+2.057e-05,+0.000e+00)    (+8.996e-05,+0.000e+00)    (+3.689e-03,+0.000e+00)    (-7.067e-03,+0.000e+00)    (+3.052e-02,+0.000e+00)    (+1.495e-01,+0.000e+00)    (+2.207e-02,+0.000e+00)    (+7.360e-02,+0.000e+00)    (+4.799e-02,+0.000e+00)    (-5.966e-01,+0.000e+00)    (-7.458e-01,+0.000e+00)    (-1.487e-05,+0.000e+00)    (-9.080e-06,+0.000e+00)    (+3.091e-05,+0.000e+00)    (+1.701e-03,+0.000e+00)    (-6.564e-04,+0.000e+00)    (+4.544e-03,+0.000e+00)    (+5.466e-02,+0.000e+00)    (+2.660e-03,+0.000e+00)    (+2.790e-02,+0.000e+00)    (+2.940e-02,+0.000e+00)    (-1.469e-01,+0.000e+00)    (-1.728e-01,+0.000e+00)    (+1.529e-05,+0.000e+00)    (-6.204e-06,+0.000e+00)    (-2.424e-05,+0.000e+00)    (-2.411e-04,+0.000e+00)    (+7.647e-04,+0.000e+00)    (+3.542e-04,+0.000e+00)    (+1.856e-03,+0.000e+00)    (-2.117e-03,+0.000e+00)    (+2.060e-03,+0.000e+00)    (+1.333e-03,+0.000e+00)    (+8.448e-04,+0.000e+00)    (+2.485e-03,+0.000e+00)    (-2.892e-05,+0.000e+00)    (-1.681e-06,+0.000e+00)    (-2.175e-05,+0.000e+00)    (-1.359e-05,+0.000e+00)    (-7.158e-04,+0.000e+00)    (-1.216e-03,+0.000e+00)    (-1.661e-03,+0.000e+00)    (+8.693e-04,+0.000e+00)    (-2.779e-03,+0.000e+00)    (-1.670e-03,+0.000e+00)    (+3.778e-03,+0.000e+00)    (+1.301e-02,+0.000e+00)    (+1.511e-06,+0.000e+00)    (-1.251e-06,+0.000e+00)    (+7.811e-06,+0.000e+00)    (+2.206e-04,+0.000e+00)    (-6.135e-04,+0.000e+00)    (-1.886e-04,+0.000e+00)    (-5.066e-03,+0.000e+00)    (-3.320e-04,+0.000e+00)    (-2.344e-03,+0.000e+00)    (-3.024e-03,+0.000e+00)    (+4.013e-03,+0.000e+00)    (+4.733e-03,+0.000e+00)
Norm(1.000000000,0.000000000)
vHv(0.185361304,0.000000000)
MF energy: -185.689705555
Diag Pops: 
    (+1.000e+00,+0.000e+00)    (+1.000e+00,+0.000e+00)    (+1.000e+00,+0.000e+00)    (+1.000e+00,+0.000e+00)    (+1.000e+00,+0.000e+00)    (+9.995e-01,+0.000e+00)    (+9.873e-01,+0.000e+00)    (+9.998e-01,+0.000e+00)    (+9.969e-01,+0.000e+00)    (+9.984e-01,+0.000e+00)    (+8.112e-01,+0.000e+00)    (+7.069e-01,+0.000e+00)    (+4.718e-01,+0.000e+00)    (+2.804e-02,+0.000e+00)    (+1.080e-05,+0.000e+00)    (+9.982e-05,+0.000e+00)    (+3.969e-05,+0.000e+00)
Term1 - Ex State Corr:    -0.065056714
Term2 - OOV:              0.057768027
Term2 - check:            0.057768027
Term3 - VVO:              0.012760885
Term3 - check:            0.012760885
Term4 - OV:               -0.002237756
*Total CIS(D) correction: 0.003234443 au -- 0.088013403 eV
*Mp2:                     0.167290137
*Total:                   5.131935448 eV
CIS Vector 8.173425068
Vec
    (-5.692e-05,+0.000e+00)    (-1.737e-04,+0.000e+00)    (-5.563e-05,+0.000e+00)    (+1.600e-02,+0.000e+00)    (+1.158e-02,+0.000e+00)    (+7.171e-03,+0.000e+00)    (+9.674e-03,+0.000e+00)    (+1.310e-01,+0.000e+00)    (-4.476e-02,+0.000e+00)    (+3.488e-01,+0.000e+00)    (+4.602e-01,+0.000e+00)    (-3.426e-01,+0.000e+00)    (-4.001e-05,+0.000e+00)    (-6.260e-05,+0.000e+00)    (-2.456e-05,+0.000e+00)    (+3.740e-03,+0.000e+00)    (+1.143e-02,+0.000e+00)    (-2.757e-02,+0.000e+00)    (-1.062e-01,+0.000e+00)    (+1.789e-03,+0.000e+00)    (+2.876e-01,+0.000e+00)    (-2.372e-01,+0.000e+00)    (-4.746e-01,+0.000e+00)    (+3.721e-01,+0.000e+00)    (+3.097e-05,+0.000e+00)    (-3.569e-05,+0.000e+00)    (+2.457e-05,+0.000e+00)    (-2.953e-03,+0.000e+00)    (-3.352e-03,+0.000e+00)    (-5.099e-03,+0.000e+00)    (-1.977e-02,+0.000e+00)    (-1.974e-02,+0.000e+00)    (+2.184e-02,+0.000e+00)    (-5.039e-02,+0.000e+00)    (-5.607e-02,+0.000e+00)    (+4.063e-02,+0.000e+00)    (-1.516e-05,+0.000e+00)    (+1.461e-05,+0.000e+00)    (+1.933e-05,+0.000e+00)    (-2.082e-03,+0.000e+00)    (+2.319e-03,+0.000e+00)    (-1.368e-03,+0.000e+00)    (+9.258e-03,+0.000e+00)    (+2.439e-03,+0.000e+00)    (-1.597e-02,+0.000e+00)    (+1.980e-02,+0.000e+00)    (+4.660e-02,+0.000e+00)    (+2.457e-02,+0.000e+00)    (-4.727e-05,+0.000e+00)    (-8.336e-05,+0.000e+00)    (+1.815e-04,+0.000e+00)    (-8.700e-03,+0.000e+00)    (-9.541e-03,+0.000e+00)    (+1.082e-03,+0.000e+00)    (+2.098e-02,+0.000e+00)    (-1.639e-02,+0.000e+00)    (-3.445e-02,+0.000e+00)    (-5.864e-03,+0.000e+00)    (+1.521e-02,+0.000e+00)    (-1.002e-02,+0.000e+00)
Norm(1.000000000,0.000000000)
vHv(0.300368783,0.000000000)
MF energy: -185.550354010
Diag Pops: 
    (+1.000e+00,+0.000e+00)    (+1.000e+00,+0.000e+00)    (+1.000e+00,+0.000e+00)    (+9.998e-01,+0.000e+00)    (+9.998e-01,+0.000e+00)    (+9.996e-01,+0.000e+00)    (+9.939e-01,+0.000e+00)    (+9.911e-01,+0.000e+00)    (+9.567e-01,+0.000e+00)    (+9.096e-01,+0.000e+00)    (+7.787e-01,+0.000e+00)    (+8.709e-01,+0.000e+00)    (+2.352e-01,+0.000e+00)    (+2.575e-01,+0.000e+00)    (+4.318e-03,+0.000e+00)    (+1.763e-03,+0.000e+00)    (+1.215e-03,+0.000e+00)
Term1 - Ex State Corr:    -0.070393898
Term2 - OOV:              0.035556050
Term2 - check:            0.035556050
Term3 - VVO:              0.015457784
Term3 - check:            0.015457784
Term4 - OV:               -0.002403882
*Total CIS(D) correction: -0.021783946 au -- -0.592769481 eV
*Mp2:                     0.167290137
*Total:                   7.580655587 eV
CIS Vector 9.204757999
Vec
    (+1.156e-04,+0.000e+00)    (-5.818e-04,+0.000e+00)    (-1.993e-04,+0.000e+00)    (+4.333e-02,+0.000e+00)    (+5.308e-02,+0.000e+00)    (+6.904e-03,+0.000e+00)    (-1.510e-01,+0.000e+00)    (+3.991e-01,+0.000e+00)    (+3.357e-01,+0.000e+00)    (+6.075e-01,+0.000e+00)    (+1.550e-01,+0.000e+00)    (-7.130e-02,+0.000e+00)    (+1.993e-06,+0.000e+00)    (-2.156e-04,+0.000e+00)    (-6.496e-05,+0.000e+00)    (+1.013e-02,+0.000e+00)    (+2.147e-02,+0.000e+00)    (+3.154e-02,+0.000e+00)    (-2.375e-03,+0.000e+00)    (+8.543e-02,+0.000e+00)    (-5.677e-02,+0.000e+00)    (+3.508e-01,+0.000e+00)    (+3.351e-01,+0.000e+00)    (-2.265e-01,+0.000e+00)    (-1.138e-06,+0.000e+00)    (-1.290e-05,+0.000e+00)    (-2.438e-05,+0.000e+00)    (+2.252e-04,+0.000e+00)    (-1.439e-03,+0.000e+00)    (+4.240e-03,+0.000e+00)    (-2.204e-03,+0.000e+00)    (-6.664e-03,+0.000e+00)    (-2.032e-02,+0.000e+00)    (+8.606e-03,+0.000e+00)    (+2.166e-02,+0.000e+00)    (-2.513e-02,+0.000e+00)    (-2.291e-05,+0.000e+00)    (+1.834e-05,+0.000e+00)    (+5.075e-05,+0.000e+00)    (-3.674e-03,+0.000e+00)    (+3.104e-03,+0.000e+00)    (-5.013e-03,+0.000e+00)    (+1.123e-02,+0.000e+00)    (-1.680e-03,+0.000e+00)    (+9.162e-03,+0.000e+00)    (-2.794e-03,+0.000e+00)    (+1.264e-02,+0.000e+00)    (+2.770e-02,+0.000e+00)    (+2.661e-05,+0.000e+00)    (-1.293e-05,+0.000e+00)    (+5.532e-05,+0.000e+00)    (-3.315e-03,+0.000e+00)    (-2.409e-03,+0.000e+00)    (-2.905e-03,+0.000e+00)    (+3.317e-03,+0.000e+00)    (-8.683e-03,+0.000e+00)    (+9.618e-04,+0.000e+00)    (-1.817e-02,+0.000e+00)    (-1.167e-02,+0.000e+00)    (+8.491e-03,+0.000e+00)
Norm(1.000000000,0.000000000)
vHv(0.338269689,0.000000000)
MF energy: -185.528018325
Diag Pops: 
    (+1.000e+00,+0.000e+00)    (+1.000e+00,+0.000e+00)    (+1.000e+00,+0.000e+00)    (+9.990e-01,+0.000e+00)    (+9.984e-01,+0.000e+00)    (+9.995e-01,+0.000e+00)    (+9.885e-01,+0.000e+00)    (+9.166e-01,+0.000e+00)    (+9.418e-01,+0.000e+00)    (+7.537e-01,+0.000e+00)    (+9.314e-01,+0.000e+00)    (+9.711e-01,+0.000e+00)    (+3.488e-01,+0.000e+00)    (+1.494e-01,+0.000e+00)    (+8.285e-04,+0.000e+00)    (+5.980e-04,+0.000e+00)    (+3.255e-04,+0.000e+00)
Term1 - Ex State Corr:    -0.066914606
Term2 - OOV:              0.054675665
Term2 - check:            0.054675665
Term3 - VVO:              0.020386518
Term3 - check:            0.020386518
Term4 - OV:               -0.004228482
*Total CIS(D) correction: 0.003919095 au -- 0.106643683 eV
*Mp2:                     0.167290137
*Total:                   9.311401682 eV
CIS Vector 10.320068053
Vec
    (-1.174e-04,+0.000e+00)    (+1.766e-04,+0.000e+00)    (+4.858e-05,+0.000e+00)    (-5.261e-03,+0.000e+00)    (-1.779e-02,+0.000e+00)    (+9.084e-03,+0.000e+00)    (-9.853e-02,+0.000e+00)    (-1.154e-01,+0.000e+00)    (-1.368e-01,+0.000e+00)    (-3.833e-01,+0.000e+00)    (+4.285e-01,+0.000e+00)    (-5.034e-01,+0.000e+00)    (+2.431e-04,+0.000e+00)    (+2.493e-05,+0.000e+00)    (-7.081e-05,+0.000e+00)    (-8.417e-03,+0.000e+00)    (-2.415e-03,+0.000e+00)    (-2.683e-02,+0.000e+00)    (+1.493e-01,+0.000e+00)    (-8.760e-02,+0.000e+00)    (-6.265e-03,+0.000e+00)    (+2.664e-01,+0.000e+00)    (+4.510e-01,+0.000e+00)    (+1.492e-01,+0.000e+00)    (+1.308e-04,+0.000e+00)    (-1.118e-04,+0.000e+00)    (+2.418e-04,+0.000e+00)    (-1.957e-02,+0.000e+00)    (-7.731e-03,+0.000e+00)    (-2.052e-02,+0.000e+00)    (+1.258e-02,+0.000e+00)    (-5.962e-02,+0.000e+00)    (-3.194e-02,+0.000e+00)    (-2.978e-02,+0.000e+00)    (+2.519e-02,+0.000e+00)    (+4.391e-02,+0.000e+00)    (-1.358e-04,+0.000e+00)    (+1.795e-05,+0.000e+00)    (-8.117e-05,+0.000e+00)    (+4.760e-03,+0.000e+00)    (-2.338e-03,+0.000e+00)    (-8.452e-03,+0.000e+00)    (-2.509e-02,+0.000e+00)    (+3.631e-03,+0.000e+00)    (-9.265e-03,+0.000e+00)    (+8.921e-03,+0.000e+00)    (+9.155e-02,+0.000e+00)    (+9.953e-02,+0.000e+00)    (-5.382e-05,+0.000e+00)    (-2.797e-04,+0.000e+00)    (+6.292e-04,+0.000e+00)    (-2.624e-02,+0.000e+00)    (-2.976e-02,+0.000e+00)    (+2.436e-03,+0.000e+00)    (+2.155e-02,+0.000e+00)    (-6.949e-02,+0.000e+00)    (-5.581e-02,+0.000e+00)    (-8.558e-02,+0.000e+00)    (-2.723e-02,+0.000e+00)    (+9.530e-03,+0.000e+00)
Norm(1.000000000,0.000000000)
vHv(0.379256708,0.000000000)
MF energy: -185.490916648
Diag Pops: 
    (+1.000e+00,+0.000e+00)    (+1.000e+00,+0.000e+00)    (+1.000e+00,+0.000e+00)    (+9.994e-01,+0.000e+00)    (+9.994e-01,+0.000e+00)    (+9.993e-01,+0.000e+00)    (+9.834e-01,+0.000e+00)    (+9.853e-01,+0.000e+00)    (+9.885e-01,+0.000e+00)    (+8.869e-01,+0.000e+00)    (+8.016e-01,+0.000e+00)    (+8.562e-01,+0.000e+00)    (+3.131e-01,+0.000e+00)    (+1.637e-01,+0.000e+00)    (+4.524e-03,+0.000e+00)    (+9.597e-03,+0.000e+00)    (+9.073e-03,+0.000e+00)
Term1 - Ex State Corr:    -0.087099889
Term2 - OOV:              0.047442998
Term2 - check:            0.047442998
Term3 - VVO:              0.028308108
Term3 - check:            0.028308108
Term4 - OV:               -0.009275167
*Total CIS(D) correction: -0.020623950 au -- -0.561204483 eV
*Mp2:                     0.167290137
*Total:                   9.758863570 eV
CIS Vector 11.714415198
Vec
    (+1.390e-04,+0.000e+00)    (+1.260e-04,+0.000e+00)    (+2.603e-05,+0.000e+00)    (-9.153e-03,+0.000e+00)    (-1.146e-02,+0.000e+00)    (-5.241e-02,+0.000e+00)    (+2.148e-01,+0.000e+00)    (-8.296e-02,+0.000e+00)    (+1.143e-01,+0.000e+00)    (-1.209e-01,+0.000e+00)    (+3.771e-01,+0.000e+00)    (-1.030e-01,+0.000e+00)    (-4.742e-04,+0.000e+00)    (+1.044e-04,+0.000e+00)    (+2.606e-04,+0.000e+00)    (+7.401e-04,+0.000e+00)    (+6.434e-04,+0.000e+00)    (+1.328e-01,+0.000e+00)    (-2.648e-01,+0.000e+00)    (-9.987e-02,+0.000e+00)    (-2.515e-01,+0.000e+00)    (-2.302e-01,+0.000e+00)    (-1.697e-01,+0.000e+00)    (-6.848e-01,+0.000e+00)    (-1.344e-04,+0.000e+00)    (-7.104e-05,+0.000e+00)    (+2.367e-04,+0.000e+00)    (-7.699e-03,+0.000e+00)    (-1.512e-02,+0.000e+00)    (-1.149e-03,+0.000e+00)    (-3.926e-02,+0.000e+00)    (-6.048e-02,+0.000e+00)    (-5.826e-02,+0.000e+00)    (-6.327e-02,+0.000e+00)    (-2.773e-02,+0.000e+00)    (-3.233e-02,+0.000e+00)    (+1.268e-04,+0.000e+00)    (+1.916e-05,+0.000e+00)    (+1.302e-04,+0.000e+00)    (-5.927e-03,+0.000e+00)    (+1.419e-02,+0.000e+00)    (-1.069e-02,+0.000e+00)    (-3.687e-04,+0.000e+00)    (+1.695e-02,+0.000e+00)    (+2.238e-03,+0.000e+00)    (+2.508e-02,+0.000e+00)    (+1.041e-01,+0.000e+00)    (+1.046e-01,+0.000e+00)    (+8.041e-05,+0.000e+00)    (-2.165e-04,+0.000e+00)    (+4.599e-04,+0.000e+00)    (-2.493e-02,+0.000e+00)    (-2.443e-02,+0.000e+00)    (-5.534e-03,+0.000e+00)    (+4.903e-02,+0.000e+00)    (-6.465e-02,+0.000e+00)    (-3.267e-02,+0.000e+00)    (-6.554e-02,+0.000e+00)    (-2.502e-02,+0.000e+00)    (+1.932e-02,+0.000e+00)
Norm(1.000000000,0.000000000)
vHv(0.430498183,0.000000000)
MF energy: -185.434119185
Diag Pops: 
    (+1.000e+00,+0.000e+00)    (+1.000e+00,+0.000e+00)    (+1.000e+00,+0.000e+00)    (+9.996e-01,+0.000e+00)    (+9.994e-01,+0.000e+00)    (+9.897e-01,+0.000e+00)    (+9.399e-01,+0.000e+00)    (+9.875e-01,+0.000e+00)    (+9.596e-01,+0.000e+00)    (+9.617e-01,+0.000e+00)    (+9.084e-01,+0.000e+00)    (+7.541e-01,+0.000e+00)    (+1.182e-01,+0.000e+00)    (+3.558e-01,+0.000e+00)    (+7.350e-03,+0.000e+00)    (+1.152e-02,+0.000e+00)    (+7.098e-03,+0.000e+00)
Term1 - Ex State Corr:    -0.081050312
Term2 - OOV:              0.038794351
Term2 - check:            0.038794351
Term3 - VVO:              0.023496289
Term3 - check:            0.023496289
Term4 - OV:               -0.008417171
*Total CIS(D) correction: -0.027176844 au -- -0.739517251 eV
*Mp2:                     0.167290137
*Total:                   10.974897947 eV
CIS Vector 12.803839194
Vec
    (+2.614e-05,+0.000e+00)    (+4.912e-04,+0.000e+00)    (+5.133e-04,+0.000e+00)    (-7.199e-03,+0.000e+00)    (-4.374e-02,+0.000e+00)    (-7.120e-02,+0.000e+00)    (-3.310e-03,+0.000e+00)    (-4.841e-01,+0.000e+00)    (-6.293e-01,+0.000e+00)    (+5.082e-01,+0.000e+00)    (+8.449e-04,+0.000e+00)    (-2.951e-02,+0.000e+00)    (-1.082e-04,+0.000e+00)    (+1.888e-04,+0.000e+00)    (+2.472e-04,+0.000e+00)    (-7.894e-03,+0.000e+00)    (-7.577e-03,+0.000e+00)    (-4.699e-03,+0.000e+00)    (-2.520e-03,+0.000e+00)    (-1.335e-01,+0.000e+00)    (-1.317e-01,+0.000e+00)    (+1.460e-01,+0.000e+00)    (+5.738e-02,+0.000e+00)    (-1.311e-01,+0.000e+00)    (+2.454e-05,+0.000e+00)    (+5.347e-05,+0.000e+00)    (-2.638e-04,+0.000e+00)    (+1.442e-02,+0.000e+00)    (+4.713e-04,+0.000e+00)    (+3.486e-02,+0.000e+00)    (-3.012e-02,+0.000e+00)    (+1.573e-02,+0.000e+00)    (+1.771e-02,+0.000e+00)    (+7.795e-03,+0.000e+00)    (-3.016e-02,+0.000e+00)    (-6.362e-02,+0.000e+00)    (-7.446e-05,+0.000e+00)    (-2.963e-05,+0.000e+00)    (+1.885e-04,+0.000e+00)    (-1.038e-02,+0.000e+00)    (+1.404e-02,+0.000e+00)    (-6.277e-03,+0.000e+00)    (+8.012e-02,+0.000e+00)    (+2.530e-02,+0.000e+00)    (+4.000e-02,+0.000e+00)    (+3.063e-02,+0.000e+00)    (+1.400e-02,+0.000e+00)    (-1.325e-02,+0.000e+00)    (+6.547e-06,+0.000e+00)    (+1.082e-04,+0.000e+00)    (-3.111e-04,+0.000e+00)    (+1.416e-02,+0.000e+00)    (+1.904e-02,+0.000e+00)    (-1.348e-03,+0.000e+00)    (-1.375e-02,+0.000e+00)    (+5.690e-02,+0.000e+00)    (+4.621e-02,+0.000e+00)    (+4.176e-02,+0.000e+00)    (+8.113e-03,+0.000e+00)    (-1.037e-02,+0.000e+00)
Norm(1.000000000,0.000000000)
vHv(0.470533903,0.000000000)
MF energy: -185.464838947
Diag Pops: 
    (+1.000e+00,+0.000e+00)    (+1.000e+00,+0.000e+00)    (+1.000e+00,+0.000e+00)    (+9.997e-01,+0.000e+00)    (+9.987e-01,+0.000e+00)    (+9.968e-01,+0.000e+00)    (+9.962e-01,+0.000e+00)    (+8.719e-01,+0.000e+00)    (+7.913e-01,+0.000e+00)    (+8.588e-01,+0.000e+00)    (+9.978e-01,+0.000e+00)    (+9.888e-01,+0.000e+00)    (+4.483e-01,+0.000e+00)    (+3.855e-02,+0.000e+00)    (+3.955e-03,+0.000e+00)    (+5.157e-03,+0.000e+00)    (+4.022e-03,+0.000e+00)
Term1 - Ex State Corr:    -0.107463957
Term2 - OOV:              0.056637707
Term2 - check:            0.056637707
Term3 - VVO:              0.019795947
Term3 - check:            0.019795947
Term4 - OV:               -0.004615471
*Total CIS(D) correction: -0.035645775 au -- -0.969967874 eV
*Mp2:                     0.167290137
*Total:                   11.833871320 eV
CIS Vector 14.165395084
Vec
    (-1.998e-04,+0.000e+00)    (-3.295e-04,+0.000e+00)    (-4.285e-04,+0.000e+00)    (+4.438e-02,+0.000e+00)    (-3.017e-02,+0.000e+00)    (-9.671e-02,+0.000e+00)    (-8.200e-01,+0.000e+00)    (+2.579e-01,+0.000e+00)    (-2.816e-01,+0.000e+00)    (-1.745e-01,+0.000e+00)    (-7.397e-02,+0.000e+00)    (-7.393e-02,+0.000e+00)    (-6.112e-05,+0.000e+00)    (-9.097e-05,+0.000e+00)    (-1.843e-04,+0.000e+00)    (+1.497e-02,+0.000e+00)    (-2.052e-02,+0.000e+00)    (-2.119e-02,+0.000e+00)    (-2.102e-01,+0.000e+00)    (+2.532e-02,+0.000e+00)    (-2.404e-02,+0.000e+00)    (-1.379e-02,+0.000e+00)    (-1.876e-01,+0.000e+00)    (-2.029e-01,+0.000e+00)    (+5.208e-05,+0.000e+00)    (+1.577e-05,+0.000e+00)    (-1.545e-04,+0.000e+00)    (+3.700e-03,+0.000e+00)    (+8.269e-04,+0.000e+00)    (+1.881e-02,+0.000e+00)    (-7.982e-03,+0.000e+00)    (+3.345e-03,+0.000e+00)    (+8.517e-03,+0.000e+00)    (+7.209e-03,+0.000e+00)    (-1.613e-02,+0.000e+00)    (-8.290e-03,+0.000e+00)    (-5.712e-05,+0.000e+00)    (+1.248e-05,+0.000e+00)    (+7.976e-05,+0.000e+00)    (-2.266e-03,+0.000e+00)    (+2.352e-03,+0.000e+00)    (-3.323e-05,+0.000e+00)    (+3.441e-02,+0.000e+00)    (+2.987e-03,+0.000e+00)    (+2.327e-02,+0.000e+00)    (-9.387e-04,+0.000e+00)    (+7.060e-03,+0.000e+00)    (-3.687e-02,+0.000e+00)    (-3.990e-05,+0.000e+00)    (+2.978e-05,+0.000e+00)    (-1.279e-04,+0.000e+00)    (+3.924e-03,+0.000e+00)    (+6.920e-03,+0.000e+00)    (-3.730e-03,+0.000e+00)    (-2.763e-03,+0.000e+00)    (+2.339e-02,+0.000e+00)    (+1.230e-02,+0.000e+00)    (+1.205e-02,+0.000e+00)    (-4.824e-03,+0.000e+00)    (-1.435e-02,+0.000e+00)
Norm(1.000000000,0.000000000)
vHv(0.520570318,0.000000000)
MF energy: -185.405326450
Diag Pops: 
    (+1.000e+00,+0.000e+00)    (+1.000e+00,+0.000e+00)    (+1.000e+00,+0.000e+00)    (+9.989e-01,+0.000e+00)    (+9.993e-01,+0.000e+00)    (+9.949e-01,+0.000e+00)    (+6.411e-01,+0.000e+00)    (+9.661e-01,+0.000e+00)    (+9.597e-01,+0.000e+00)    (+9.846e-01,+0.000e+00)    (+9.795e-01,+0.000e+00)    (+9.759e-01,+0.000e+00)    (+4.359e-01,+0.000e+00)    (+6.152e-02,+0.000e+00)    (+4.484e-04,+0.000e+00)    (+1.578e-03,+0.000e+00)    (+5.787e-04,+0.000e+00)
Term1 - Ex State Corr:    -0.111299840
Term2 - OOV:              0.056292146
Term2 - check:            0.056292146
Term3 - VVO:              0.014754622
Term3 - check:            0.014754622
Term4 - OV:               -0.001414927
*Total CIS(D) correction: -0.041667999 au -- -1.133840421 eV
*Mp2:                     0.167290137
*Total:                   13.031554662 eV
CIS Vector 14.814729605
Vec
    (+1.228e-05,+0.000e+00)    (-1.583e-04,+0.000e+00)    (-2.643e-04,+0.000e+00)    (-5.951e-03,+0.000e+00)    (+1.752e-02,+0.000e+00)    (+8.615e-02,+0.000e+00)    (+3.693e-01,+0.000e+00)    (+6.333e-01,+0.000e+00)    (-5.462e-01,+0.000e+00)    (-8.484e-02,+0.000e+00)    (+1.561e-02,+0.000e+00)    (+1.120e-02,+0.000e+00)    (-7.274e-05,+0.000e+00)    (-5.038e-05,+0.000e+00)    (-9.371e-05,+0.000e+00)    (-1.428e-02,+0.000e+00)    (+2.032e-02,+0.000e+00)    (+1.768e-02,+0.000e+00)    (+9.659e-02,+0.000e+00)    (+1.331e-01,+0.000e+00)    (+1.785e-02,+0.000e+00)    (-1.617e-01,+0.000e+00)    (+1.769e-01,+0.000e+00)    (-9.123e-02,+0.000e+00)    (+4.963e-05,+0.000e+00)    (+4.170e-05,+0.000e+00)    (-3.011e-04,+0.000e+00)    (+1.498e-02,+0.000e+00)    (+6.882e-03,+0.000e+00)    (+5.847e-02,+0.000e+00)    (-3.865e-02,+0.000e+00)    (+3.382e-02,+0.000e+00)    (-5.558e-03,+0.000e+00)    (+2.159e-02,+0.000e+00)    (-8.755e-02,+0.000e+00)    (-8.113e-02,+0.000e+00)    (-7.922e-05,+0.000e+00)    (-6.682e-06,+0.000e+00)    (+2.064e-04,+0.000e+00)    (-9.251e-03,+0.000e+00)    (+1.185e-02,+0.000e+00)    (-1.831e-02,+0.000e+00)    (+1.148e-01,+0.000e+00)    (+3.232e-02,+0.000e+00)    (+5.415e-02,+0.000e+00)    (+4.517e-02,+0.000e+00)    (+3.023e-02,+0.000e+00)    (+3.412e-03,+0.000e+00)    (-6.217e-06,+0.000e+00)    (+1.046e-04,+0.000e+00)    (-3.936e-04,+0.000e+00)    (+1.407e-02,+0.000e+00)    (+2.263e-02,+0.000e+00)    (-7.794e-03,+0.000e+00)    (-1.032e-02,+0.000e+00)    (+7.413e-02,+0.000e+00)    (+5.662e-02,+0.000e+00)    (+5.327e-02,+0.000e+00)    (+1.131e-02,+0.000e+00)    (-2.363e-02,+0.000e+00)
Norm(1.000000000,0.000000000)
vHv(0.544432997,0.000000000)
MF energy: -185.391200194
Diag Pops: 
    (+1.000e+00,+0.000e+00)    (+1.000e+00,+0.000e+00)    (+1.000e+00,+0.000e+00)    (+9.996e-01,+0.000e+00)    (+9.993e-01,+0.000e+00)    (+9.942e-01,+0.000e+00)    (+9.198e-01,+0.000e+00)    (+7.868e-01,+0.000e+00)    (+8.476e-01,+0.000e+00)    (+9.807e-01,+0.000e+00)    (+9.799e-01,+0.000e+00)    (+9.922e-01,+0.000e+00)    (+4.255e-01,+0.000e+00)    (+4.702e-02,+0.000e+00)    (+1.054e-02,+0.000e+00)    (+1.034e-02,+0.000e+00)    (+6.551e-03,+0.000e+00)
Term1 - Ex State Corr:    -0.102155134
Term2 - OOV:              0.053417373
Term2 - check:            0.053417373
Term3 - VVO:              0.027428827
Term3 - check:            0.027428827
Term4 - OV:               -0.004640458
*Total CIS(D) correction: -0.025949393 au -- -0.706116711 eV
*Mp2:                     0.167290137
*Total:                   14.108612894 eV
CIS Vector 15.033979292
Vec
    (-1.512e-04,+0.000e+00)    (-7.061e-06,+0.000e+00)    (-8.610e-05,+0.000e+00)    (-9.696e-03,+0.000e+00)    (+2.260e-02,+0.000e+00)    (+7.191e-02,+0.000e+00)    (+1.703e-01,+0.000e+00)    (+1.112e-01,+0.000e+00)    (-8.511e-02,+0.000e+00)    (-1.676e-01,+0.000e+00)    (+1.296e-01,+0.000e+00)    (+7.552e-02,+0.000e+00)    (+6.045e-04,+0.000e+00)    (+1.393e-05,+0.000e+00)    (-4.831e-06,+0.000e+00)    (+7.810e-03,+0.000e+00)    (-1.156e-02,+0.000e+00)    (+1.752e-02,+0.000e+00)    (+1.190e-01,+0.000e+00)    (-2.128e-02,+0.000e+00)    (-3.582e-02,+0.000e+00)    (+7.296e-01,+0.000e+00)    (-5.285e-01,+0.000e+00)    (-8.389e-02,+0.000e+00)    (+6.371e-05,+0.000e+00)    (+7.166e-06,+0.000e+00)    (-1.443e-04,+0.000e+00)    (-2.862e-03,+0.000e+00)    (+1.046e-02,+0.000e+00)    (+3.174e-02,+0.000e+00)    (+3.778e-02,+0.000e+00)    (+3.508e-02,+0.000e+00)    (+1.102e-02,+0.000e+00)    (+2.337e-03,+0.000e+00)    (+1.105e-01,+0.000e+00)    (-4.138e-03,+0.000e+00)    (+8.232e-05,+0.000e+00)    (+3.837e-06,+0.000e+00)    (+4.660e-05,+0.000e+00)    (+1.446e-02,+0.000e+00)    (-1.421e-02,+0.000e+00)    (+1.531e-02,+0.000e+00)    (-2.191e-02,+0.000e+00)    (-2.132e-02,+0.000e+00)    (+1.596e-02,+0.000e+00)    (+4.344e-02,+0.000e+00)    (-1.888e-01,+0.000e+00)    (-2.391e-02,+0.000e+00)    (-7.447e-05,+0.000e+00)    (-1.227e-05,+0.000e+00)    (-2.667e-04,+0.000e+00)    (+6.521e-03,+0.000e+00)    (+8.187e-03,+0.000e+00)    (-1.574e-02,+0.000e+00)    (-1.905e-02,+0.000e+00)    (+4.005e-02,+0.000e+00)    (+2.305e-02,+0.000e+00)    (+3.052e-02,+0.000e+00)    (+8.863e-03,+0.000e+00)    (-6.180e-03,+0.000e+00)
Norm(1.000000000,0.000000000)
vHv(0.552490300,0.000000000)
MF energy: -185.401877519
Diag Pops: 
    (+1.000e+00,+0.000e+00)    (+1.000e+00,+0.000e+00)    (+1.000e+00,+0.000e+00)    (+9.998e-01,+0.000e+00)    (+9.995e-01,+0.000e+00)    (+9.965e-01,+0.000e+00)    (+9.773e-01,+0.000e+00)    (+9.919e-01,+0.000e+00)    (+9.953e-01,+0.000e+00)    (+7.184e-01,+0.000e+00)    (+8.280e-01,+0.000e+00)    (+9.933e-01,+0.000e+00)    (+5.250e-02,+0.000e+00)    (+4.175e-01,+0.000e+00)    (+8.072e-03,+0.000e+00)    (+1.996e-02,+0.000e+00)    (+1.952e-03,+0.000e+00)
Term1 - Ex State Corr:    -0.116652372
Term2 - OOV:              0.033325557
Term2 - check:            0.033325557
Term3 - VVO:              0.028169809
Term3 - check:            0.028169809
Term4 - OV:               -0.005466817
*Total CIS(D) correction: -0.060623823 au -- -1.649653041 eV
*Mp2:                     0.167290137
*Total:                   13.384326251 eV
CIS Vector 15.871205602
Vec
    (+3.707e-05,+0.000e+00)    (-7.288e-05,+0.000e+00)    (+4.570e-05,+0.000e+00)    (+3.800e-03,+0.000e+00)    (-2.365e-03,+0.000e+00)    (+6.556e-02,+0.000e+00)    (+1.338e-02,+0.000e+00)    (-1.983e-02,+0.000e+00)    (+2.569e-02,+0.000e+00)    (-2.681e-02,+0.000e+00)    (-2.774e-02,+0.000e+00)    (+6.083e-02,+0.000e+00)    (+1.999e-04,+0.000e+00)    (-2.431e-05,+0.000e+00)    (-2.004e-05,+0.000e+00)    (+3.173e-03,+0.000e+00)    (-6.531e-03,+0.000e+00)    (-1.464e-03,+0.000e+00)    (+3.811e-02,+0.000e+00)    (-2.267e-02,+0.000e+00)    (+1.327e-01,+0.000e+00)    (+1.394e-01,+0.000e+00)    (-7.627e-03,+0.000e+00)    (-9.746e-02,+0.000e+00)    (+3.559e-05,+0.000e+00)    (+1.685e-05,+0.000e+00)    (+3.153e-05,+0.000e+00)    (-3.084e-03,+0.000e+00)    (+6.118e-03,+0.000e+00)    (-1.831e-02,+0.000e+00)    (-3.317e-02,+0.000e+00)    (+1.354e-02,+0.000e+00)    (+1.628e-01,+0.000e+00)    (-1.958e-01,+0.000e+00)    (-4.588e-01,+0.000e+00)    (+3.676e-01,+0.000e+00)    (-2.499e-05,+0.000e+00)    (-2.089e-05,+0.000e+00)    (+9.926e-06,+0.000e+00)    (+3.764e-03,+0.000e+00)    (-1.204e-03,+0.000e+00)    (+2.946e-02,+0.000e+00)    (+6.440e-02,+0.000e+00)    (+5.871e-03,+0.000e+00)    (-2.283e-01,+0.000e+00)    (+2.843e-01,+0.000e+00)    (+4.650e-01,+0.000e+00)    (-4.087e-01,+0.000e+00)    (-1.913e-06,+0.000e+00)    (+3.090e-06,+0.000e+00)    (-2.643e-05,+0.000e+00)    (+4.499e-03,+0.000e+00)    (-4.068e-03,+0.000e+00)    (+1.541e-04,+0.000e+00)    (+9.046e-03,+0.000e+00)    (+9.492e-03,+0.000e+00)    (-6.354e-02,+0.000e+00)    (+5.206e-02,+0.000e+00)    (-1.580e-02,+0.000e+00)    (-5.310e-03,+0.000e+00)
Norm(1.000000000,0.000000000)
vHv(0.583257897,0.000000000)
MF energy: -185.267568388
Diag Pops: 
    (+1.000e+00,+0.000e+00)    (+1.000e+00,+0.000e+00)    (+1.000e+00,+0.000e+00)    (+1.000e+00,+0.000e+00)    (+9.999e-01,+0.000e+00)    (+9.972e-01,+0.000e+00)    (+9.965e-01,+0.000e+00)    (+9.994e-01,+0.000e+00)    (+9.495e-01,+0.000e+00)    (+9.290e-01,+0.000e+00)    (+7.861e-01,+0.000e+00)    (+8.423e-01,+0.000e+00)    (+5.370e-03,+0.000e+00)    (+2.432e-02,+0.000e+00)    (+2.061e-01,+0.000e+00)    (+2.606e-01,+0.000e+00)    (+3.618e-03,+0.000e+00)
Term1 - Ex State Corr:    -0.063425411
Term2 - OOV:              0.029112602
Term2 - check:            0.029112602
Term3 - VVO:              0.016493397
Term3 - check:            0.016493397
Term4 - OV:               -0.002047051
*Total CIS(D) correction: -0.019866463 au -- -0.540592281 eV
*Mp2:                     0.167290137
*Total:                   15.330613321 eV
CIS Vector 16.957642753
Vec
    (+1.027e-04,+0.000e+00)    (+6.565e-06,+0.000e+00)    (-1.160e-04,+0.000e+00)    (-4.696e-03,+0.000e+00)    (-8.981e-03,+0.000e+00)    (-1.033e-01,+0.000e+00)    (+3.625e-02,+0.000e+00)    (+7.911e-02,+0.000e+00)    (+6.462e-02,+0.000e+00)    (-1.021e-02,+0.000e+00)    (-2.617e-02,+0.000e+00)    (-9.395e-02,+0.000e+00)    (-3.768e-04,+0.000e+00)    (-3.461e-05,+0.000e+00)    (+1.765e-04,+0.000e+00)    (+1.033e-02,+0.000e+00)    (+1.368e-02,+0.000e+00)    (+6.351e-02,+0.000e+00)    (-2.172e-01,+0.000e+00)    (+1.152e-01,+0.000e+00)    (-7.902e-01,+0.000e+00)    (+4.470e-02,+0.000e+00)    (-6.271e-02,+0.000e+00)    (+4.036e-01,+0.000e+00)    (-1.404e-04,+0.000e+00)    (+2.519e-05,+0.000e+00)    (-2.157e-04,+0.000e+00)    (+1.127e-02,+0.000e+00)    (+8.798e-03,+0.000e+00)    (+3.148e-02,+0.000e+00)    (-2.622e-02,+0.000e+00)    (+4.128e-02,+0.000e+00)    (+5.589e-02,+0.000e+00)    (-5.093e-02,+0.000e+00)    (-1.941e-01,+0.000e+00)    (-1.404e-01,+0.000e+00)    (+1.144e-04,+0.000e+00)    (-1.697e-06,+0.000e+00)    (+4.057e-05,+0.000e+00)    (-2.997e-03,+0.000e+00)    (+5.970e-03,+0.000e+00)    (+2.045e-03,+0.000e+00)    (+7.672e-02,+0.000e+00)    (+1.666e-02,+0.000e+00)    (-6.058e-02,+0.000e+00)    (+1.139e-01,+0.000e+00)    (+7.693e-02,+0.000e+00)    (-2.648e-02,+0.000e+00)    (+1.021e-04,+0.000e+00)    (+8.363e-05,+0.000e+00)    (-2.665e-04,+0.000e+00)    (+1.159e-02,+0.000e+00)    (+1.084e-02,+0.000e+00)    (+3.466e-03,+0.000e+00)    (+1.147e-02,+0.000e+00)    (+5.914e-02,+0.000e+00)    (+2.279e-02,+0.000e+00)    (+7.604e-02,+0.000e+00)    (-5.073e-02,+0.000e+00)    (-2.950e-02,+0.000e+00)
Norm(1.000000000,0.000000000)
vHv(0.623183852,0.000000000)
MF energy: -185.261568993
Diag Pops: 
    (+1.000e+00,+0.000e+00)    (+1.000e+00,+0.000e+00)    (+1.000e+00,+0.000e+00)    (+9.998e-01,+0.000e+00)    (+9.998e-01,+0.000e+00)    (+9.921e-01,+0.000e+00)    (+9.724e-01,+0.000e+00)    (+9.875e-01,+0.000e+00)    (+6.820e-01,+0.000e+00)    (+9.883e-01,+0.000e+00)    (+9.746e-01,+0.000e+00)    (+9.035e-01,+0.000e+00)    (+1.607e-02,+0.000e+00)    (+4.290e-01,+0.000e+00)    (+3.334e-02,+0.000e+00)    (+1.474e-02,+0.000e+00)    (+6.819e-03,+0.000e+00)
Term1 - Ex State Corr:    -0.139861977
Term2 - OOV:              0.032807899
Term2 - check:            0.032807899
Term3 - VVO:              0.027643978
Term3 - check:            0.027643978
Term4 - OV:               -0.001529245
*Total CIS(D) correction: -0.080939345 au -- -2.202464809 eV
*Mp2:                     0.167290137
*Total:                   14.755177944 eV
CIS Vector 17.576893186
Vec
    (-6.126e-06,+0.000e+00)    (+1.550e-05,+0.000e+00)    (+2.153e-05,+0.000e+00)    (+6.859e-03,+0.000e+00)    (-2.475e-02,+0.000e+00)    (-3.560e-02,+0.000e+00)    (+8.931e-02,+0.000e+00)    (+1.396e-01,+0.000e+00)    (-7.747e-02,+0.000e+00)    (+2.710e-02,+0.000e+00)    (-2.917e-02,+0.000e+00)    (-2.441e-02,+0.000e+00)    (-1.175e-04,+0.000e+00)    (-2.876e-05,+0.000e+00)    (+1.194e-04,+0.000e+00)    (-9.477e-03,+0.000e+00)    (+2.588e-02,+0.000e+00)    (+1.199e-01,+0.000e+00)    (-2.990e-01,+0.000e+00)    (-3.308e-01,+0.000e+00)    (-1.385e-01,+0.000e+00)    (-1.467e-02,+0.000e+00)    (+8.172e-02,+0.000e+00)    (+9.308e-02,+0.000e+00)    (+9.671e-05,+0.000e+00)    (-2.855e-05,+0.000e+00)    (-1.092e-04,+0.000e+00)    (-1.378e-03,+0.000e+00)    (+1.449e-02,+0.000e+00)    (+2.983e-02,+0.000e+00)    (-3.442e-02,+0.000e+00)    (-3.937e-03,+0.000e+00)    (+1.872e-02,+0.000e+00)    (+1.115e-01,+0.000e+00)    (+3.783e-01,+0.000e+00)    (+5.989e-01,+0.000e+00)    (-1.324e-04,+0.000e+00)    (-3.538e-05,+0.000e+00)    (-2.906e-06,+0.000e+00)    (+9.046e-04,+0.000e+00)    (-1.501e-02,+0.000e+00)    (+2.151e-02,+0.000e+00)    (-4.176e-02,+0.000e+00)    (+1.234e-02,+0.000e+00)    (-6.428e-02,+0.000e+00)    (-1.217e-01,+0.000e+00)    (-8.400e-02,+0.000e+00)    (-1.909e-01,+0.000e+00)    (+2.380e-05,+0.000e+00)    (+7.486e-06,+0.000e+00)    (-3.843e-04,+0.000e+00)    (+9.649e-03,+0.000e+00)    (+6.755e-03,+0.000e+00)    (-3.336e-02,+0.000e+00)    (-1.212e-01,+0.000e+00)    (+5.276e-02,+0.000e+00)    (-2.165e-02,+0.000e+00)    (-5.643e-04,+0.000e+00)    (+2.100e-01,+0.000e+00)    (+2.618e-01,+0.000e+00)
Norm(1.000000000,0.000000000)
vHv(0.645940958,0.000000000)
MF energy: -185.197032620
Diag Pops: 
    (+1.000e+00,+0.000e+00)    (+1.000e+00,+0.000e+00)    (+1.000e+00,+0.000e+00)    (+9.999e-01,+0.000e+00)    (+9.991e-01,+0.000e+00)    (+9.909e-01,+0.000e+00)    (+9.425e-01,+0.000e+00)    (+9.341e-01,+0.000e+00)    (+9.849e-01,+0.000e+00)    (+9.859e-01,+0.000e+00)    (+8.991e-01,+0.000e+00)    (+7.635e-01,+0.000e+00)    (+1.879e-02,+0.000e+00)    (+1.243e-01,+0.000e+00)    (+2.584e-01,+0.000e+00)    (+3.252e-02,+0.000e+00)    (+6.592e-02,+0.000e+00)
Term1 - Ex State Corr:    -0.110787978
Term2 - OOV:              0.029978643
Term2 - check:            0.029978643
Term3 - VVO:              0.017198167
Term3 - check:            0.017198167
Term4 - OV:               -0.001691981
*Total CIS(D) correction: -0.065303149 au -- -1.776983573 eV
*Mp2:                     0.167290137
*Total:                   15.799909612 eV
CIS Vector 18.474823938
Vec
    (+2.777e-05,+0.000e+00)    (-1.056e-04,+0.000e+00)    (+1.516e-04,+0.000e+00)    (+9.981e-03,+0.000e+00)    (-2.533e-03,+0.000e+00)    (+5.400e-02,+0.000e+00)    (-8.556e-02,+0.000e+00)    (-9.645e-02,+0.000e+00)    (-1.350e-02,+0.000e+00)    (+3.883e-02,+0.000e+00)    (+7.672e-02,+0.000e+00)    (-5.130e-03,+0.000e+00)    (-4.759e-05,+0.000e+00)    (-3.399e-05,+0.000e+00)    (-5.307e-05,+0.000e+00)    (-1.487e-02,+0.000e+00)    (+8.078e-03,+0.000e+00)    (-6.093e-02,+0.000e+00)    (+4.175e-01,+0.000e+00)    (+4.947e-01,+0.000e+00)    (-2.123e-01,+0.000e+00)    (-8.969e-02,+0.000e+00)    (-1.374e-01,+0.000e+00)    (-8.051e-02,+0.000e+00)    (+1.807e-04,+0.000e+00)    (+6.322e-06,+0.000e+00)    (+1.351e-04,+0.000e+00)    (+1.059e-02,+0.000e+00)    (-1.874e-02,+0.000e+00)    (-1.020e-02,+0.000e+00)    (-8.530e-02,+0.000e+00)    (-4.149e-02,+0.000e+00)    (-1.456e-01,+0.000e+00)    (+3.117e-01,+0.000e+00)    (-7.966e-02,+0.000e+00)    (+4.293e-01,+0.000e+00)    (-2.949e-04,+0.000e+00)    (-3.604e-05,+0.000e+00)    (+1.992e-04,+0.000e+00)    (-2.536e-02,+0.000e+00)    (+2.679e-02,+0.000e+00)    (-3.735e-02,+0.000e+00)    (+8.584e-02,+0.000e+00)    (+1.563e-01,+0.000e+00)    (-2.474e-02,+0.000e+00)    (-1.705e-01,+0.000e+00)    (+3.288e-02,+0.000e+00)    (+1.655e-01,+0.000e+00)    (-5.233e-05,+0.000e+00)    (+3.619e-05,+0.000e+00)    (+1.223e-04,+0.000e+00)    (-1.069e-03,+0.000e+00)    (+7.416e-03,+0.000e+00)    (+4.390e-03,+0.000e+00)    (-3.544e-02,+0.000e+00)    (+4.342e-02,+0.000e+00)    (-7.766e-02,+0.000e+00)    (+6.036e-03,+0.000e+00)    (-3.176e-02,+0.000e+00)    (+2.228e-01,+0.000e+00)
Norm(1.000000000,0.000000000)
vHv(0.678939409,0.000000000)
MF energy: -185.197381245
Diag Pops: 
    (+1.000e+00,+0.000e+00)    (+1.000e+00,+0.000e+00)    (+1.000e+00,+0.000e+00)    (+9.995e-01,+0.000e+00)    (+9.994e-01,+0.000e+00)    (+9.959e-01,+0.000e+00)    (+9.012e-01,+0.000e+00)    (+8.589e-01,+0.000e+00)    (+9.635e-01,+0.000e+00)    (+9.321e-01,+0.000e+00)    (+9.834e-01,+0.000e+00)    (+8.661e-01,+0.000e+00)    (+1.362e-02,+0.000e+00)    (+2.508e-01,+0.000e+00)    (+1.593e-01,+0.000e+00)    (+4.636e-02,+0.000e+00)    (+2.996e-02,+0.000e+00)
Term1 - Ex State Corr:    -0.089740812
Term2 - OOV:              0.029132406
Term2 - check:            0.029132406
Term3 - VVO:              0.030151512
Term3 - check:            0.030151512
Term4 - OV:               -0.005035189
*Total CIS(D) correction: -0.035492083 au -- -0.965785726 eV
*Mp2:                     0.167290137
*Total:                   17.509038212 eV
CIS Vector 18.632079283
Vec
    (-1.259e-04,+0.000e+00)    (-2.435e-04,+0.000e+00)    (-2.184e-04,+0.000e+00)    (+1.441e-02,+0.000e+00)    (-2.295e-02,+0.000e+00)    (+2.773e-01,+0.000e+00)    (-4.724e-03,+0.000e+00)    (+1.721e-02,+0.000e+00)    (-1.951e-03,+0.000e+00)    (+2.561e-04,+0.000e+00)    (-1.352e-02,+0.000e+00)    (-6.825e-03,+0.000e+00)    (+8.697e-05,+0.000e+00)    (-7.192e-05,+0.000e+00)    (-1.748e-05,+0.000e+00)    (+6.729e-03,+0.000e+00)    (-8.421e-03,+0.000e+00)    (+1.143e-01,+0.000e+00)    (-1.956e-01,+0.000e+00)    (-2.899e-01,+0.000e+00)    (+4.577e-02,+0.000e+00)    (+3.893e-02,+0.000e+00)    (+5.613e-02,+0.000e+00)    (+2.205e-02,+0.000e+00)    (+6.030e-05,+0.000e+00)    (-1.901e-05,+0.000e+00)    (-1.170e-04,+0.000e+00)    (-2.702e-03,+0.000e+00)    (+6.139e-03,+0.000e+00)    (+2.081e-02,+0.000e+00)    (+1.372e-01,+0.000e+00)    (+7.850e-02,+0.000e+00)    (-1.916e-01,+0.000e+00)    (+3.022e-01,+0.000e+00)    (-5.927e-01,+0.000e+00)    (+1.299e-01,+0.000e+00)    (-7.269e-05,+0.000e+00)    (+7.992e-05,+0.000e+00)    (-1.283e-04,+0.000e+00)    (+1.070e-02,+0.000e+00)    (-1.028e-02,+0.000e+00)    (+2.894e-03,+0.000e+00)    (-7.492e-02,+0.000e+00)    (+2.194e-02,+0.000e+00)    (-3.706e-02,+0.000e+00)    (-1.394e-01,+0.000e+00)    (-3.709e-01,+0.000e+00)    (+1.333e-01,+0.000e+00)    (-5.054e-05,+0.000e+00)    (-4.393e-05,+0.000e+00)    (-7.327e-05,+0.000e+00)    (-4.947e-03,+0.000e+00)    (-2.264e-03,+0.000e+00)    (-2.081e-04,+0.000e+00)    (+6.220e-02,+0.000e+00)    (+3.538e-02,+0.000e+00)    (-5.766e-02,+0.000e+00)    (+5.208e-02,+0.000e+00)    (-2.480e-01,+0.000e+00)    (-4.787e-02,+0.000e+00)
Norm(1.000000000,0.000000000)
vHv(0.684718455,0.000000000)
MF energy: -185.154937033
Diag Pops: 
    (+1.000e+00,+0.000e+00)    (+1.000e+00,+0.000e+00)    (+1.000e+00,+0.000e+00)    (+9.998e-01,+0.000e+00)    (+9.996e-01,+0.000e+00)    (+9.548e-01,+0.000e+00)    (+9.667e-01,+0.000e+00)    (+9.539e-01,+0.000e+00)    (+9.782e-01,+0.000e+00)    (+9.425e-01,+0.000e+00)    (+7.232e-01,+0.000e+00)    (+9.813e-01,+0.000e+00)    (+3.910e-02,+0.000e+00)    (+7.137e-02,+0.000e+00)    (+2.608e-01,+0.000e+00)    (+9.122e-02,+0.000e+00)    (+3.749e-02,+0.000e+00)
Term1 - Ex State Corr:    -0.087081730
Term2 - OOV:              0.028190574
Term2 - check:            0.028190574
Term3 - VVO:              0.033592936
Term3 - check:            0.033592936
Term4 - OV:               -0.002273423
*Total CIS(D) correction: -0.027571643 au -- -0.750260262 eV
*Mp2:                     0.167290137
*Total:                   17.881819021 eV
CIS Vector 19.398297037
Vec
    (-9.704e-05,+0.000e+00)    (-1.192e-05,+0.000e+00)    (-1.445e-04,+0.000e+00)    (+1.008e-02,+0.000e+00)    (-1.339e-02,+0.000e+00)    (+5.843e-02,+0.000e+00)    (+1.773e-02,+0.000e+00)    (+2.137e-02,+0.000e+00)    (+8.866e-03,+0.000e+00)    (-3.607e-03,+0.000e+00)    (+6.782e-02,+0.000e+00)    (-3.566e-02,+0.000e+00)    (+2.739e-04,+0.000e+00)    (+3.212e-05,+0.000e+00)    (-3.904e-05,+0.000e+00)    (-2.002e-02,+0.000e+00)    (+1.294e-02,+0.000e+00)    (+2.404e-02,+0.000e+00)    (+8.627e-02,+0.000e+00)    (-8.273e-02,+0.000e+00)    (-6.204e-02,+0.000e+00)    (-5.449e-03,+0.000e+00)    (-5.225e-02,+0.000e+00)    (-1.527e-02,+0.000e+00)    (+3.208e-04,+0.000e+00)    (-4.873e-05,+0.000e+00)    (-3.224e-04,+0.000e+00)    (+2.288e-03,+0.000e+00)    (-4.952e-03,+0.000e+00)    (+3.471e-02,+0.000e+00)    (+1.196e-01,+0.000e+00)    (-1.759e-01,+0.000e+00)    (+1.920e-01,+0.000e+00)    (+3.736e-01,+0.000e+00)    (+6.036e-02,+0.000e+00)    (-2.369e-01,+0.000e+00)    (-5.561e-04,+0.000e+00)    (+8.825e-05,+0.000e+00)    (-8.249e-05,+0.000e+00)    (-9.221e-04,+0.000e+00)    (+2.133e-03,+0.000e+00)    (+1.593e-04,+0.000e+00)    (-7.007e-02,+0.000e+00)    (+1.101e-01,+0.000e+00)    (-3.350e-02,+0.000e+00)    (-5.539e-01,+0.000e+00)    (+2.603e-01,+0.000e+00)    (-4.877e-01,+0.000e+00)    (-1.305e-04,+0.000e+00)    (-8.910e-05,+0.000e+00)    (-3.768e-06,+0.000e+00)    (-9.903e-03,+0.000e+00)    (-8.792e-04,+0.000e+00)    (+4.873e-03,+0.000e+00)    (+4.156e-02,+0.000e+00)    (+2.318e-02,+0.000e+00)    (+2.370e-02,+0.000e+00)    (-5.800e-02,+0.000e+00)    (-1.460e-01,+0.000e+00)    (-1.625e-01,+0.000e+00)
Norm(1.000000000,0.000000000)
vHv(0.712876527,0.000000000)
MF energy: -185.103241988
Diag Pops: 
    (+1.000e+00,+0.000e+00)    (+1.000e+00,+0.000e+00)    (+1.000e+00,+0.000e+00)    (+9.997e-01,+0.000e+00)    (+9.998e-01,+0.000e+00)    (+9.974e-01,+0.000e+00)    (+9.856e-01,+0.000e+00)    (+9.745e-01,+0.000e+00)    (+9.788e-01,+0.000e+00)    (+7.751e-01,+0.000e+00)    (+9.500e-01,+0.000e+00)    (+8.391e-01,+0.000e+00)    (+5.214e-03,+0.000e+00)    (+1.114e-02,+0.000e+00)    (+1.413e-01,+0.000e+00)    (+3.153e-01,+0.000e+00)    (+2.701e-02,+0.000e+00)
Term1 - Ex State Corr:    -0.077111892
Term2 - OOV:              0.027674750
Term2 - check:            0.027674750
Term3 - VVO:              0.029591231
Term3 - check:            0.029591231
Term4 - OV:               -0.002565746
*Total CIS(D) correction: -0.022411656 au -- -0.609850300 eV
*Mp2:                     0.167290137
*Total:                   18.788446737 eV
CIS Vector 19.695913684
Vec
    (+4.999e-05,+0.000e+00)    (+1.386e-04,+0.000e+00)    (+7.185e-04,+0.000e+00)    (+1.606e-03,+0.000e+00)    (+8.724e-04,+0.000e+00)    (-3.169e-01,+0.000e+00)    (+1.725e-01,+0.000e+00)    (-1.132e-01,+0.000e+00)    (-5.866e-02,+0.000e+00)    (-7.332e-02,+0.000e+00)    (-2.393e-02,+0.000e+00)    (-2.011e-02,+0.000e+00)    (-1.484e-04,+0.000e+00)    (-4.426e-05,+0.000e+00)    (+2.929e-04,+0.000e+00)    (+1.662e-02,+0.000e+00)    (+5.210e-02,+0.000e+00)    (-5.947e-02,+0.000e+00)    (-5.933e-01,+0.000e+00)    (+5.476e-01,+0.000e+00)    (+2.689e-01,+0.000e+00)    (+2.171e-01,+0.000e+00)    (+1.085e-01,+0.000e+00)    (+1.322e-02,+0.000e+00)    (+1.213e-05,+0.000e+00)    (-1.836e-05,+0.000e+00)    (+1.002e-04,+0.000e+00)    (-3.381e-03,+0.000e+00)    (-3.970e-03,+0.000e+00)    (+1.785e-02,+0.000e+00)    (+2.894e-02,+0.000e+00)    (-6.610e-02,+0.000e+00)    (+1.023e-02,+0.000e+00)    (+1.102e-01,+0.000e+00)    (-6.870e-02,+0.000e+00)    (+4.218e-02,+0.000e+00)    (-7.921e-05,+0.000e+00)    (-4.633e-05,+0.000e+00)    (-1.838e-04,+0.000e+00)    (+6.708e-03,+0.000e+00)    (+7.537e-03,+0.000e+00)    (-8.182e-03,+0.000e+00)    (-6.277e-02,+0.000e+00)    (+9.883e-02,+0.000e+00)    (-1.371e-03,+0.000e+00)    (-1.308e-01,+0.000e+00)    (-1.965e-03,+0.000e+00)    (-6.016e-03,+0.000e+00)    (+2.598e-05,+0.000e+00)    (-5.218e-05,+0.000e+00)    (-1.886e-05,+0.000e+00)    (+3.064e-04,+0.000e+00)    (+6.415e-04,+0.000e+00)    (-1.792e-03,+0.000e+00)    (+1.871e-03,+0.000e+00)    (+2.441e-02,+0.000e+00)    (-4.396e-03,+0.000e+00)    (+1.339e-02,+0.000e+00)    (-3.641e-02,+0.000e+00)    (-2.287e-03,+0.000e+00)
Norm(1.000000000,0.000000000)
vHv(0.723813772,0.000000000)
MF energy: -185.156116593
Diag Pops: 
    (+1.000e+00,+0.000e+00)    (+1.000e+00,+0.000e+00)    (+1.000e+00,+0.000e+00)    (+9.998e-01,+0.000e+00)    (+9.986e-01,+0.000e+00)    (+9.478e-01,+0.000e+00)    (+8.067e-01,+0.000e+00)    (+8.363e-01,+0.000e+00)    (+9.621e-01,+0.000e+00)    (+9.590e-01,+0.000e+00)    (+9.908e-01,+0.000e+00)    (+9.988e-01,+0.000e+00)    (+7.640e-02,+0.000e+00)    (+3.949e-01,+0.000e+00)    (+1.215e-02,+0.000e+00)    (+1.551e-02,+0.000e+00)    (+1.067e-03,+0.000e+00)
Term1 - Ex State Corr:    -0.183030198
Term2 - OOV:              0.034125852
Term2 - check:            0.034125852
Term3 - VVO:              0.018069146
Term3 - check:            0.018069146
Term4 - OV:               -0.000408716
*Total CIS(D) correction: -0.131243916 au -- -3.571317578 eV
*Mp2:                     0.167290137
*Total:                   16.124596106 eV
CIS Vector 20.126117602
Vec
    (+6.643e-05,+0.000e+00)    (+5.489e-04,+0.000e+00)    (+2.174e-03,+0.000e+00)    (-1.029e-02,+0.000e+00)    (+3.169e-02,+0.000e+00)    (-8.079e-01,+0.000e+00)    (+5.607e-02,+0.000e+00)    (+1.121e-01,+0.000e+00)    (+2.668e-02,+0.000e+00)    (+3.294e-03,+0.000e+00)    (+2.230e-02,+0.000e+00)    (-6.095e-03,+0.000e+00)    (+2.707e-04,+0.000e+00)    (+2.479e-04,+0.000e+00)    (+8.656e-04,+0.000e+00)    (-3.058e-02,+0.000e+00)    (+1.881e-02,+0.000e+00)    (-1.522e-01,+0.000e+00)    (+2.822e-01,+0.000e+00)    (-2.071e-01,+0.000e+00)    (-8.788e-03,+0.000e+00)    (-4.970e-02,+0.000e+00)    (-1.212e-02,+0.000e+00)    (-4.512e-02,+0.000e+00)    (+9.269e-05,+0.000e+00)    (+3.059e-06,+0.000e+00)    (-1.255e-04,+0.000e+00)    (-8.874e-03,+0.000e+00)    (+5.176e-03,+0.000e+00)    (+1.157e-02,+0.000e+00)    (+7.123e-02,+0.000e+00)    (-7.124e-02,+0.000e+00)    (+9.056e-02,+0.000e+00)    (-2.294e-02,+0.000e+00)    (-1.937e-01,+0.000e+00)    (+9.157e-02,+0.000e+00)    (-1.233e-04,+0.000e+00)    (+4.880e-05,+0.000e+00)    (-9.775e-05,+0.000e+00)    (+2.069e-03,+0.000e+00)    (-1.221e-02,+0.000e+00)    (+1.559e-02,+0.000e+00)    (+5.006e-03,+0.000e+00)    (+4.024e-02,+0.000e+00)    (-1.257e-01,+0.000e+00)    (-4.718e-02,+0.000e+00)    (-2.813e-01,+0.000e+00)    (-4.348e-02,+0.000e+00)    (-3.081e-05,+0.000e+00)    (-3.721e-05,+0.000e+00)    (-2.802e-05,+0.000e+00)    (-4.977e-03,+0.000e+00)    (-4.556e-03,+0.000e+00)    (-3.504e-03,+0.000e+00)    (+3.387e-02,+0.000e+00)    (-1.445e-02,+0.000e+00)    (-1.895e-02,+0.000e+00)    (-2.595e-02,+0.000e+00)    (-7.702e-02,+0.000e+00)    (-5.519e-02,+0.000e+00)
Norm(1.000000000,0.000000000)
vHv(0.739623524,0.000000000)
MF energy: -185.191714894
Diag Pops: 
    (+1.000e+00,+0.000e+00)    (+1.000e+00,+0.000e+00)    (+1.000e+00,+0.000e+00)    (+9.994e-01,+0.000e+00)    (+9.992e-01,+0.000e+00)    (+6.619e-01,+0.000e+00)    (+9.555e-01,+0.000e+00)    (+9.688e-01,+0.000e+00)    (+9.874e-01,+0.000e+00)    (+9.970e-01,+0.000e+00)    (+9.384e-01,+0.000e+00)    (+9.923e-01,+0.000e+00)    (+3.354e-01,+0.000e+00)    (+7.585e-02,+0.000e+00)    (+3.251e-02,+0.000e+00)    (+5.055e-02,+0.000e+00)    (+5.712e-03,+0.000e+00)
Term1 - Ex State Corr:    -0.106832264
Term2 - OOV:              0.048686278
Term2 - check:            0.048686278
Term3 - VVO:              0.017707588
Term3 - check:            0.017707588
Term4 - OV:               -0.001891433
*Total CIS(D) correction: -0.042329832 au -- -1.151849768 eV
*Mp2:                     0.167290137
*Total:                   18.974267834 eV
CIS Vector 21.120847798
Vec
    (-5.381e-05,+0.000e+00)    (+1.133e-04,+0.000e+00)    (+4.358e-04,+0.000e+00)    (-6.806e-03,+0.000e+00)    (+1.433e-02,+0.000e+00)    (-1.222e-01,+0.000e+00)    (+1.908e-02,+0.000e+00)    (+3.992e-02,+0.000e+00)    (+2.063e-02,+0.000e+00)    (-8.578e-03,+0.000e+00)    (-2.289e-02,+0.000e+00)    (+3.504e-02,+0.000e+00)    (+2.397e-04,+0.000e+00)    (+4.990e-05,+0.000e+00)    (+1.007e-04,+0.000e+00)    (+7.768e-03,+0.000e+00)    (-1.661e-02,+0.000e+00)    (-6.359e-02,+0.000e+00)    (-2.669e-02,+0.000e+00)    (-1.565e-01,+0.000e+00)    (+3.942e-02,+0.000e+00)    (+3.384e-02,+0.000e+00)    (-2.918e-02,+0.000e+00)    (-3.716e-03,+0.000e+00)    (+8.214e-05,+0.000e+00)    (-1.134e-04,+0.000e+00)    (+1.514e-04,+0.000e+00)    (+4.378e-03,+0.000e+00)    (+3.724e-02,+0.000e+00)    (-2.251e-02,+0.000e+00)    (+1.974e-02,+0.000e+00)    (+3.143e-01,+0.000e+00)    (+2.713e-01,+0.000e+00)    (+4.140e-01,+0.000e+00)    (+1.312e-01,+0.000e+00)    (+9.837e-02,+0.000e+00)    (+3.735e-05,+0.000e+00)    (-6.126e-06,+0.000e+00)    (-4.292e-04,+0.000e+00)    (+1.365e-02,+0.000e+00)    (-7.252e-04,+0.000e+00)    (+7.968e-03,+0.000e+00)    (-1.268e-01,+0.000e+00)    (-5.518e-02,+0.000e+00)    (-1.186e-01,+0.000e+00)    (+1.194e-01,+0.000e+00)    (+4.023e-01,+0.000e+00)    (+4.804e-01,+0.000e+00)    (-4.763e-05,+0.000e+00)    (-1.723e-04,+0.000e+00)    (-3.008e-04,+0.000e+00)    (+1.384e-02,+0.000e+00)    (+3.726e-03,+0.000e+00)    (+4.350e-02,+0.000e+00)    (-2.011e-02,+0.000e+00)    (+1.394e-01,+0.000e+00)    (+1.134e-01,+0.000e+00)    (+1.540e-01,+0.000e+00)    (-1.015e-01,+0.000e+00)    (-2.555e-01,+0.000e+00)
Norm(1.000000000,0.000000000)
vHv(0.776179300,0.000000000)
MF energy: -185.032600451
Diag Pops: 
    (+1.000e+00,+0.000e+00)    (+1.000e+00,+0.000e+00)    (+1.000e+00,+0.000e+00)    (+9.997e-01,+0.000e+00)    (+9.991e-01,+0.000e+00)    (+9.893e-01,+0.000e+00)    (+9.910e-01,+0.000e+00)    (+9.263e-01,+0.000e+00)    (+9.487e-01,+0.000e+00)    (+8.947e-01,+0.000e+00)    (+9.046e-01,+0.000e+00)    (+8.465e-01,+0.000e+00)    (+9.695e-03,+0.000e+00)    (+1.657e-02,+0.000e+00)    (+1.865e-01,+0.000e+00)    (+2.202e-01,+0.000e+00)    (+6.705e-02,+0.000e+00)
Term1 - Ex State Corr:    -0.158565136
Term2 - OOV:              0.026872895
Term2 - check:            0.026872895
Term3 - VVO:              0.017395740
Term3 - check:            0.017395740
Term4 - OV:               -0.002367691
*Total CIS(D) correction: -0.116664191 au -- -3.174584311 eV
*Mp2:                     0.167290137
*Total:                   17.946263487 eV
CIS Vector 21.999734951
Vec
    (-3.902e-05,+0.000e+00)    (-4.301e-05,+0.000e+00)    (-1.285e-03,+0.000e+00)    (+1.597e-03,+0.000e+00)    (-2.113e-02,+0.000e+00)    (+2.152e-01,+0.000e+00)    (-3.430e-02,+0.000e+00)    (-2.620e-02,+0.000e+00)    (-2.321e-02,+0.000e+00)    (+1.133e-02,+0.000e+00)    (+7.226e-03,+0.000e+00)    (-1.815e-03,+0.000e+00)    (-6.311e-05,+0.000e+00)    (-1.653e-05,+0.000e+00)    (-5.619e-04,+0.000e+00)    (-8.779e-03,+0.000e+00)    (+9.096e-03,+0.000e+00)    (+5.579e-02,+0.000e+00)    (-1.077e-02,+0.000e+00)    (+1.003e-01,+0.000e+00)    (-3.819e-02,+0.000e+00)    (-3.359e-02,+0.000e+00)    (+3.209e-02,+0.000e+00)    (-3.728e-02,+0.000e+00)    (+1.929e-04,+0.000e+00)    (+1.982e-05,+0.000e+00)    (+3.842e-05,+0.000e+00)    (+1.363e-03,+0.000e+00)    (-5.689e-03,+0.000e+00)    (+2.407e-02,+0.000e+00)    (+9.497e-03,+0.000e+00)    (-2.517e-01,+0.000e+00)    (+4.162e-01,+0.000e+00)    (-7.609e-02,+0.000e+00)    (-1.964e-03,+0.000e+00)    (+8.557e-02,+0.000e+00)    (-3.155e-04,+0.000e+00)    (+2.980e-05,+0.000e+00)    (+4.941e-05,+0.000e+00)    (-8.920e-03,+0.000e+00)    (+1.250e-02,+0.000e+00)    (-9.545e-03,+0.000e+00)    (+5.202e-02,+0.000e+00)    (+2.811e-01,+0.000e+00)    (-4.472e-01,+0.000e+00)    (+1.682e-03,+0.000e+00)    (-2.882e-01,+0.000e+00)    (+1.630e-01,+0.000e+00)    (-7.847e-05,+0.000e+00)    (+2.171e-05,+0.000e+00)    (-4.638e-06,+0.000e+00)    (-2.817e-03,+0.000e+00)    (+1.551e-03,+0.000e+00)    (+1.561e-03,+0.000e+00)    (+5.897e-03,+0.000e+00)    (-6.328e-02,+0.000e+00)    (+1.444e-01,+0.000e+00)    (-1.679e-01,+0.000e+00)    (+3.020e-01,+0.000e+00)    (-3.818e-01,+0.000e+00)
Norm(1.000000000,0.000000000)
vHv(0.808477910,0.000000000)
MF energy: -185.040333217
Diag Pops: 
    (+1.000e+00,+0.000e+00)    (+1.000e+00,+0.000e+00)    (+1.000e+00,+0.000e+00)    (+9.999e-01,+0.000e+00)    (+9.996e-01,+0.000e+00)    (+9.749e-01,+0.000e+00)    (+9.979e-01,+0.000e+00)    (+9.214e-01,+0.000e+00)    (+8.020e-01,+0.000e+00)    (+9.824e-01,+0.000e+00)    (+9.123e-01,+0.000e+00)    (+9.095e-01,+0.000e+00)    (+2.468e-02,+0.000e+00)    (+9.228e-03,+0.000e+00)    (+1.252e-01,+0.000e+00)    (+1.958e-01,+0.000e+00)    (+1.451e-01,+0.000e+00)
Term1 - Ex State Corr:    -0.064017748
Term2 - OOV:              0.030557964
Term2 - check:            0.030557964
Term3 - VVO:              0.036376438
Term3 - check:            0.036376438
Term4 - OV:               -0.003395116
*Total CIS(D) correction: -0.000478462 au -- -0.013019572 eV
*Mp2:                     0.167290137
*Total:                   21.986715380 eV
CIS Vector 22.310456854
Vec
    (-6.463e-05,+0.000e+00)    (+2.026e-05,+0.000e+00)    (+4.161e-05,+0.000e+00)    (-2.881e-03,+0.000e+00)    (-1.978e-03,+0.000e+00)    (-1.965e-03,+0.000e+00)    (+9.208e-03,+0.000e+00)    (+3.181e-02,+0.000e+00)    (-7.356e-03,+0.000e+00)    (-1.041e-02,+0.000e+00)    (-4.689e-02,+0.000e+00)    (+5.031e-02,+0.000e+00)    (+1.514e-04,+0.000e+00)    (+1.471e-05,+0.000e+00)    (-9.494e-05,+0.000e+00)    (+2.704e-03,+0.000e+00)    (-9.018e-03,+0.000e+00)    (-1.447e-02,+0.000e+00)    (+1.729e-03,+0.000e+00)    (-7.526e-02,+0.000e+00)    (-1.175e-02,+0.000e+00)    (+8.883e-02,+0.000e+00)    (-2.618e-02,+0.000e+00)    (+1.768e-02,+0.000e+00)    (+4.537e-05,+0.000e+00)    (+9.742e-05,+0.000e+00)    (+5.330e-04,+0.000e+00)    (-2.441e-03,+0.000e+00)    (+5.510e-04,+0.000e+00)    (+2.881e-02,+0.000e+00)    (-1.065e-01,+0.000e+00)    (-2.839e-03,+0.000e+00)    (+1.330e-01,+0.000e+00)    (-4.452e-01,+0.000e+00)    (-2.285e-01,+0.000e+00)    (+8.618e-02,+0.000e+00)    (+2.420e-06,+0.000e+00)    (+9.636e-05,+0.000e+00)    (-8.301e-05,+0.000e+00)    (-1.189e-02,+0.000e+00)    (-2.886e-02,+0.000e+00)    (+3.029e-02,+0.000e+00)    (+3.206e-03,+0.000e+00)    (-1.830e-01,+0.000e+00)    (+1.348e-01,+0.000e+00)    (-6.525e-01,+0.000e+00)    (+1.900e-01,+0.000e+00)    (+3.293e-01,+0.000e+00)    (-4.129e-06,+0.000e+00)    (+7.856e-05,+0.000e+00)    (-2.929e-04,+0.000e+00)    (+1.303e-02,+0.000e+00)    (+2.007e-02,+0.000e+00)    (+8.108e-03,+0.000e+00)    (-1.508e-02,+0.000e+00)    (+6.308e-02,+0.000e+00)    (+5.917e-02,+0.000e+00)    (+1.176e-01,+0.000e+00)    (+2.084e-01,+0.000e+00)    (+4.300e-02,+0.000e+00)
Norm(1.000000000,0.000000000)
vHv(0.819896765,0.000000000)
MF energy: -185.096143226
Diag Pops: 
    (+1.000e+00,+0.000e+00)    (+1.000e+00,+0.000e+00)    (+1.000e+00,+0.000e+00)    (+9.998e-01,+0.000e+00)    (+9.993e-01,+0.000e+00)    (+9.990e-01,+0.000e+00)    (+9.942e-01,+0.000e+00)    (+9.779e-01,+0.000e+00)    (+9.802e-01,+0.000e+00)    (+6.771e-01,+0.000e+00)    (+9.327e-01,+0.000e+00)    (+9.397e-01,+0.000e+00)    (+3.003e-03,+0.000e+00)    (+7.496e-03,+0.000e+00)    (+1.438e-01,+0.000e+00)    (+3.119e-01,+0.000e+00)    (+3.372e-02,+0.000e+00)
Term1 - Ex State Corr:    -0.143358724
Term2 - OOV:              0.023352925
Term2 - check:            0.023352925
Term3 - VVO:              0.017467671
Term3 - check:            0.017467671
Term4 - OV:               -0.003873116
*Total CIS(D) correction: -0.106411244 au -- -2.895588288 eV
*Mp2:                     0.167290137
*Total:                   19.414868566 eV
CIS Vector 23.148400004
Vec
    (-9.900e-05,+0.000e+00)    (+1.058e-04,+0.000e+00)    (+2.736e-04,+0.000e+00)    (-9.772e-03,+0.000e+00)    (+2.073e-02,+0.000e+00)    (-5.255e-02,+0.000e+00)    (+1.374e-03,+0.000e+00)    (+8.071e-03,+0.000e+00)    (+4.182e-02,+0.000e+00)    (-4.031e-02,+0.000e+00)    (+7.425e-03,+0.000e+00)    (+3.798e-03,+0.000e+00)    (+3.985e-04,+0.000e+00)    (+3.921e-05,+0.000e+00)    (+2.350e-04,+0.000e+00)    (+1.813e-02,+0.000e+00)    (-3.349e-02,+0.000e+00)    (-1.106e-01,+0.000e+00)    (-2.861e-02,+0.000e+00)    (-1.280e-01,+0.000e+00)    (+7.460e-02,+0.000e+00)    (+6.584e-02,+0.000e+00)    (-1.057e-02,+0.000e+00)    (+1.192e-03,+0.000e+00)    (-4.738e-05,+0.000e+00)    (-1.318e-04,+0.000e+00)    (-3.143e-04,+0.000e+00)    (+1.075e-02,+0.000e+00)    (-1.497e-02,+0.000e+00)    (-8.995e-02,+0.000e+00)    (-3.113e-01,+0.000e+00)    (-1.425e-02,+0.000e+00)    (-6.456e-02,+0.000e+00)    (+3.454e-01,+0.000e+00)    (-2.199e-01,+0.000e+00)    (-3.623e-01,+0.000e+00)    (+4.798e-05,+0.000e+00)    (-4.579e-05,+0.000e+00)    (+6.563e-05,+0.000e+00)    (-1.213e-03,+0.000e+00)    (-2.833e-02,+0.000e+00)    (-5.567e-03,+0.000e+00)    (+5.883e-02,+0.000e+00)    (-1.629e-02,+0.000e+00)    (-2.857e-01,+0.000e+00)    (+2.093e-02,+0.000e+00)    (+6.005e-02,+0.000e+00)    (+2.412e-02,+0.000e+00)    (+4.654e-05,+0.000e+00)    (-1.959e-04,+0.000e+00)    (-6.564e-05,+0.000e+00)    (-9.170e-03,+0.000e+00)    (-2.060e-03,+0.000e+00)    (-2.235e-03,+0.000e+00)    (-1.103e-01,+0.000e+00)    (-1.121e-02,+0.000e+00)    (+1.127e-02,+0.000e+00)    (-3.010e-02,+0.000e+00)    (+5.246e-01,+0.000e+00)    (+4.051e-01,+0.000e+00)
Norm(1.000000000,0.000000000)
vHv(0.850690706,0.000000000)
MF energy: -185.018565192
Diag Pops: 
    (+1.000e+00,+0.000e+00)    (+1.000e+00,+0.000e+00)    (+1.000e+00,+0.000e+00)    (+9.997e-01,+0.000e+00)    (+9.987e-01,+0.000e+00)    (+9.884e-01,+0.000e+00)    (+9.433e-01,+0.000e+00)    (+9.915e-01,+0.000e+00)    (+9.534e-01,+0.000e+00)    (+9.367e-01,+0.000e+00)    (+8.363e-01,+0.000e+00)    (+8.520e-01,+0.000e+00)    (+3.399e-03,+0.000e+00)    (+2.045e-02,+0.000e+00)    (+2.043e-01,+0.000e+00)    (+4.541e-02,+0.000e+00)    (+2.264e-01,+0.000e+00)
Term1 - Ex State Corr:    -0.126442646
Term2 - OOV:              0.023652645
Term2 - check:            0.023652645
Term3 - VVO:              0.016992282
Term3 - check:            0.016992282
Term4 - OV:               -0.005185349
*Total CIS(D) correction: -0.090983068 au -- -2.475767545 eV
*Mp2:                     0.167290137
*Total:                   20.672632459 eV
CIS Vector 23.867587713
Vec
    (-1.106e-05,+0.000e+00)    (-2.100e-04,+0.000e+00)    (-4.121e-04,+0.000e+00)    (+1.506e-02,+0.000e+00)    (+1.708e-02,+0.000e+00)    (+6.800e-02,+0.000e+00)    (-8.246e-03,+0.000e+00)    (+1.390e-02,+0.000e+00)    (-5.290e-02,+0.000e+00)    (+9.707e-03,+0.000e+00)    (-1.877e-02,+0.000e+00)    (+1.665e-02,+0.000e+00)    (-1.507e-05,+0.000e+00)    (-6.633e-05,+0.000e+00)    (-2.168e-04,+0.000e+00)    (+1.062e-03,+0.000e+00)    (+5.608e-03,+0.000e+00)    (+2.322e-02,+0.000e+00)    (-1.599e-02,+0.000e+00)    (-5.853e-03,+0.000e+00)    (+5.585e-02,+0.000e+00)    (-1.120e-02,+0.000e+00)    (+1.399e-02,+0.000e+00)    (-1.400e-02,+0.000e+00)    (+7.964e-05,+0.000e+00)    (+4.070e-05,+0.000e+00)    (+6.302e-05,+0.000e+00)    (+1.730e-03,+0.000e+00)    (-9.269e-03,+0.000e+00)    (+2.679e-02,+0.000e+00)    (+2.016e-02,+0.000e+00)    (-6.343e-02,+0.000e+00)    (+1.140e-01,+0.000e+00)    (-2.072e-01,+0.000e+00)    (+1.821e-01,+0.000e+00)    (-1.668e-01,+0.000e+00)    (-1.926e-04,+0.000e+00)    (+9.242e-05,+0.000e+00)    (+2.616e-05,+0.000e+00)    (-8.701e-03,+0.000e+00)    (-1.702e-02,+0.000e+00)    (+4.575e-02,+0.000e+00)    (+1.642e-02,+0.000e+00)    (+5.193e-02,+0.000e+00)    (-5.696e-01,+0.000e+00)    (-8.568e-02,+0.000e+00)    (-2.691e-02,+0.000e+00)    (+1.215e-01,+0.000e+00)    (-5.351e-06,+0.000e+00)    (+1.886e-05,+0.000e+00)    (-1.207e-04,+0.000e+00)    (+5.344e-03,+0.000e+00)    (+1.045e-02,+0.000e+00)    (+3.506e-03,+0.000e+00)    (+2.241e-02,+0.000e+00)    (+1.551e-01,+0.000e+00)    (-1.982e-01,+0.000e+00)    (+2.213e-01,+0.000e+00)    (-4.734e-01,+0.000e+00)    (+4.179e-01,+0.000e+00)
Norm(1.000000000,0.000000000)
vHv(0.877120450,0.000000000)
MF energy: -184.976134548
Diag Pops: 
    (+1.000e+00,+0.000e+00)    (+1.000e+00,+0.000e+00)    (+1.000e+00,+0.000e+00)    (+9.998e-01,+0.000e+00)    (+9.996e-01,+0.000e+00)    (+9.960e-01,+0.000e+00)    (+9.992e-01,+0.000e+00)    (+9.845e-01,+0.000e+00)    (+8.087e-01,+0.000e+00)    (+9.503e-01,+0.000e+00)    (+8.707e-01,+0.000e+00)    (+8.912e-01,+0.000e+00)    (+4.463e-03,+0.000e+00)    (+2.249e-03,+0.000e+00)    (+6.108e-02,+0.000e+00)    (+1.764e-01,+0.000e+00)    (+2.558e-01,+0.000e+00)
Term1 - Ex State Corr:    -0.109478056
Term2 - OOV:              0.025635566
Term2 - check:            0.025635566
Term3 - VVO:              0.039675339
Term3 - check:            0.039675339
Term4 - OV:               -0.002254002
*Total CIS(D) correction: -0.046421152 au -- -1.263179898 eV
*Mp2:                     0.167290137
*Total:                   22.604407815 eV
CIS Vector 24.409612331
Vec
[...]
Norm(1.000000000,0.000000000)
vHv(20.316484334,0.000000000)
MF energy: -164.548863597
Diag Pops: 
    (+1.000e+00,+0.000e+00)    (+5.000e-01,+0.000e+00)    (+1.000e+00,+0.000e+00)    (+1.000e+00,+0.000e+00)    (+1.000e+00,+0.000e+00)    (+1.000e+00,+0.000e+00)    (+1.000e+00,+0.000e+00)    (+1.000e+00,+0.000e+00)    (+1.000e+00,+0.000e+00)    (+1.000e+00,+0.000e+00)    (+1.000e+00,+0.000e+00)    (+1.000e+00,+0.000e+00)    (+6.856e-06,+0.000e+00)    (+3.065e-03,+0.000e+00)    (+1.919e-01,+0.000e+00)    (+1.595e-03,+0.000e+00)    (+3.034e-01,+0.000e+00)
Term1 - Ex State Corr:    -0.232813851
Term2 - OOV:              0.030610124
Term2 - check:            0.030610124
Term3 - VVO:              0.000072256
Term3 - check:            0.000072256
Term4 - OV:               -0.000063132
*Total CIS(D) correction: -0.202194603 au -- -5.501978014 eV
*Mp2:                     0.167290137
*Total:                   547.335972149 eV
CIS Vector 556.180337727
Vec
    (+2.624e-04,+0.000e+00)    (+2.777e-01,+0.000e+00)    (-3.572e-06,+0.000e+00)    (+6.879e-05,+0.000e+00)    (+7.106e-05,+0.000e+00)    (-3.831e-05,+0.000e+00)    (+3.360e-06,+0.000e+00)    (-4.947e-05,+0.000e+00)    (+3.609e-06,+0.000e+00)    (-2.911e-05,+0.000e+00)    (+6.036e-05,+0.000e+00)    (-4.390e-06,+0.000e+00)    (-9.487e-04,+0.000e+00)    (-9.486e-01,+0.000e+00)    (-2.480e-06,+0.000e+00)    (+1.831e-05,+0.000e+00)    (+2.233e-05,+0.000e+00)    (-2.864e-05,+0.000e+00)    (+6.823e-05,+0.000e+00)    (-8.169e-05,+0.000e+00)    (-7.404e-06,+0.000e+00)    (-4.909e-05,+0.000e+00)    (-3.796e-05,+0.000e+00)    (-8.856e-05,+0.000e+00)    (+6.250e-05,+0.000e+00)    (+5.472e-02,+0.000e+00)    (-4.212e-06,+0.000e+00)    (+4.595e-06,+0.000e+00)    (+5.149e-06,+0.000e+00)    (+1.740e-05,+0.000e+00)    (+1.083e-05,+0.000e+00)    (+2.694e-05,+0.000e+00)    (+2.168e-05,+0.000e+00)    (+1.842e-05,+0.000e+00)    (-1.683e-05,+0.000e+00)    (-2.997e-05,+0.000e+00)    (-1.602e-04,+0.000e+00)    (-1.351e-01,+0.000e+00)    (-9.019e-06,+0.000e+00)    (+4.550e-05,+0.000e+00)    (+5.316e-05,+0.000e+00)    (-4.124e-05,+0.000e+00)    (+6.299e-05,+0.000e+00)    (-8.008e-05,+0.000e+00)    (-3.635e-05,+0.000e+00)    (-3.740e-05,+0.000e+00)    (-3.854e-05,+0.000e+00)    (-3.017e-05,+0.000e+00)    (+3.295e-05,+0.000e+00)    (+4.329e-02,+0.000e+00)    (+5.684e-06,+0.000e+00)    (-3.104e-05,+0.000e+00)    (-3.786e-05,+0.000e+00)    (+3.572e-05,+0.000e+00)    (-2.259e-05,+0.000e+00)    (+6.208e-05,+0.000e+00)    (+4.551e-05,+0.000e+00)    (+3.281e-05,+0.000e+00)    (-7.163e-06,+0.000e+00)    (-4.064e-05,+0.000e+00)
Norm(1.000000000,0.000000000)
vHv(20.439315201,0.000000000)
MF energy: -164.387865978
Diag Pops: 
    (+1.000e+00,+0.000e+00)    (+5.000e-01,+0.000e+00)    (+1.000e+00,+0.000e+00)    (+1.000e+00,+0.000e+00)    (+1.000e+00,+0.000e+00)    (+1.000e+00,+0.000e+00)    (+1.000e+00,+0.000e+00)    (+1.000e+00,+0.000e+00)    (+1.000e+00,+0.000e+00)    (+1.000e+00,+0.000e+00)    (+1.000e+00,+0.000e+00)    (+1.000e+00,+0.000e+00)    (+3.855e-02,+0.000e+00)    (+4.499e-01,+0.000e+00)    (+1.497e-03,+0.000e+00)    (+9.128e-03,+0.000e+00)    (+9.368e-04,+0.000e+00)
Term1 - Ex State Corr:    -0.689126329
Term2 - OOV:              0.031531066
Term2 - check:            0.031531066
Term3 - VVO:              0.000069378
Term3 - check:            0.000069378
Term4 - OV:               -0.000001043
*Total CIS(D) correction: -0.657526929 au -- -17.892162516 eV
*Mp2:                     0.167290137
*Total:                   538.288175210 eV
CIS Vector 560.791384393
Vec
    (+4.975e-06,+0.000e+00)    (+4.405e-02,+0.000e+00)    (-2.653e-07,+0.000e+00)    (+2.948e-05,+0.000e+00)    (+2.443e-05,+0.000e+00)    (-1.654e-05,+0.000e+00)    (+1.178e-05,+0.000e+00)    (+7.531e-06,+0.000e+00)    (-5.214e-05,+0.000e+00)    (+3.106e-05,+0.000e+00)    (-7.196e-05,+0.000e+00)    (+5.126e-05,+0.000e+00)    (-3.613e-05,+0.000e+00)    (-1.089e-01,+0.000e+00)    (-3.675e-07,+0.000e+00)    (-3.306e-05,+0.000e+00)    (-2.340e-05,+0.000e+00)    (+1.918e-05,+0.000e+00)    (-6.733e-06,+0.000e+00)    (+2.090e-05,+0.000e+00)    (-1.266e-05,+0.000e+00)    (+1.228e-05,+0.000e+00)    (-1.349e-05,+0.000e+00)    (+3.412e-05,+0.000e+00)    (-9.576e-05,+0.000e+00)    (+3.131e-01,+0.000e+00)    (+1.766e-05,+0.000e+00)    (+4.777e-06,+0.000e+00)    (-4.681e-06,+0.000e+00)    (+2.046e-06,+0.000e+00)    (-4.144e-05,+0.000e+00)    (+4.517e-05,+0.000e+00)    (+2.282e-05,+0.000e+00)    (+3.587e-05,+0.000e+00)    (+1.655e-05,+0.000e+00)    (+6.011e-06,+0.000e+00)    (+7.179e-04,+0.000e+00)    (+9.268e-01,+0.000e+00)    (+3.378e-05,+0.000e+00)    (-1.352e-04,+0.000e+00)    (-1.650e-04,+0.000e+00)    (+1.641e-04,+0.000e+00)    (-1.955e-04,+0.000e+00)    (+3.133e-04,+0.000e+00)    (+1.605e-04,+0.000e+00)    (+1.578e-04,+0.000e+00)    (+8.738e-05,+0.000e+00)    (+4.142e-05,+0.000e+00)    (-6.090e-05,+0.000e+00)    (-1.707e-01,+0.000e+00)    (-1.235e-05,+0.000e+00)    (+8.114e-05,+0.000e+00)    (+9.604e-05,+0.000e+00)    (-8.519e-05,+0.000e+00)    (+3.226e-05,+0.000e+00)    (-1.528e-04,+0.000e+00)    (-9.779e-05,+0.000e+00)    (-9.334e-05,+0.000e+00)    (+8.057e-05,+0.000e+00)    (+1.164e-04,+0.000e+00)
Norm(1.000000000,0.000000000)
vHv(20.608768577,0.000000000)
MF energy: -164.237754189
Diag Pops: 
    (+1.000e+00,+0.000e+00)    (+5.000e-01,+0.000e+00)    (+1.000e+00,+0.000e+00)    (+1.000e+00,+0.000e+00)    (+1.000e+00,+0.000e+00)    (+1.000e+00,+0.000e+00)    (+1.000e+00,+0.000e+00)    (+1.000e+00,+0.000e+00)    (+1.000e+00,+0.000e+00)    (+1.000e+00,+0.000e+00)    (+1.000e+00,+0.000e+00)    (+1.000e+00,+0.000e+00)    (+9.700e-04,+0.000e+00)    (+5.925e-03,+0.000e+00)    (+4.902e-02,+0.000e+00)    (+4.295e-01,+0.000e+00)    (+1.458e-02,+0.000e+00)
Term1 - Ex State Corr:    -0.588894928
Term2 - OOV:              0.024949651
Term2 - check:            0.024949651
Term3 - VVO:              0.000070014
Term3 - check:            0.000070014
Term4 - OV:               -0.000007846
*Total CIS(D) correction: -0.563883110 au -- -15.343992469 eV
*Mp2:                     0.167290137
*Total:                   545.447391924 eV
CIS Vector 563.277985108
Vec
    (-3.526e-02,+0.000e+00)    (-6.963e-06,+0.000e+00)    (+4.557e-07,+0.000e+00)    (-3.975e-05,+0.000e+00)    (+4.998e-05,+0.000e+00)    (+5.449e-06,+0.000e+00)    (-2.168e-07,+0.000e+00)    (+1.638e-05,+0.000e+00)    (+3.085e-06,+0.000e+00)    (-2.221e-05,+0.000e+00)    (+6.400e-06,+0.000e+00)    (+9.273e-06,+0.000e+00)    (+8.552e-02,+0.000e+00)    (+4.405e-06,+0.000e+00)    (+6.639e-07,+0.000e+00)    (+6.341e-05,+0.000e+00)    (-7.776e-05,+0.000e+00)    (-2.108e-06,+0.000e+00)    (-1.357e-05,+0.000e+00)    (-5.084e-05,+0.000e+00)    (+3.384e-05,+0.000e+00)    (+3.257e-05,+0.000e+00)    (-3.924e-05,+0.000e+00)    (+1.075e-05,+0.000e+00)    (-8.137e-01,+0.000e+00)    (+1.107e-03,+0.000e+00)    (-9.408e-06,+0.000e+00)    (-3.924e-05,+0.000e+00)    (+4.092e-05,+0.000e+00)    (-1.464e-05,+0.000e+00)    (+5.658e-05,+0.000e+00)    (+2.974e-05,+0.000e+00)    (+3.431e-05,+0.000e+00)    (-1.138e-05,+0.000e+00)    (+2.256e-05,+0.000e+00)    (+5.682e-05,+0.000e+00)    (-5.628e-01,+0.000e+00)    (-9.528e-05,+0.000e+00)    (-8.942e-06,+0.000e+00)    (+5.620e-05,+0.000e+00)    (-9.564e-05,+0.000e+00)    (-9.407e-05,+0.000e+00)    (+1.461e-04,+0.000e+00)    (+3.388e-05,+0.000e+00)    (+8.405e-05,+0.000e+00)    (+2.867e-05,+0.000e+00)    (+2.631e-05,+0.000e+00)    (+8.897e-05,+0.000e+00)    (+1.123e-01,+0.000e+00)    (-4.610e-04,+0.000e+00)    (+5.740e-06,+0.000e+00)    (-1.119e-05,+0.000e+00)    (+2.668e-05,+0.000e+00)    (+2.724e-05,+0.000e+00)    (-5.684e-05,+0.000e+00)    (+5.518e-06,+0.000e+00)    (-2.046e-05,+0.000e+00)    (-3.516e-05,+0.000e+00)    (-2.231e-05,+0.000e+00)    (-2.478e-05,+0.000e+00)
Norm(1.000000000,0.000000000)
vHv(20.700149758,0.000000000)
MF energy: -164.120765237
Diag Pops: 
    (+5.000e-01,+0.000e+00)    (+1.000e+00,+0.000e+00)    (+1.000e+00,+0.000e+00)    (+1.000e+00,+0.000e+00)    (+1.000e+00,+0.000e+00)    (+1.000e+00,+0.000e+00)    (+1.000e+00,+0.000e+00)    (+1.000e+00,+0.000e+00)    (+1.000e+00,+0.000e+00)    (+1.000e+00,+0.000e+00)    (+1.000e+00,+0.000e+00)    (+1.000e+00,+0.000e+00)    (+6.215e-04,+0.000e+00)    (+3.657e-03,+0.000e+00)    (+3.310e-01,+0.000e+00)    (+1.584e-01,+0.000e+00)    (+6.304e-03,+0.000e+00)
Term1 - Ex State Corr:    -0.525909560
Term2 - OOV:              0.018903612
Term2 - check:            0.018903612
Term3 - VVO:              0.000065883
Term3 - check:            0.000065883
Term4 - OV:               -0.000001151
*Total CIS(D) correction: -0.506941216 au -- -13.794529512 eV
*Mp2:                     0.167290137
*Total:                   549.483455595 eV
CIS Vector 564.001876122
Vec
    (+3.282e-06,+0.000e+00)    (+3.090e-02,+0.000e+00)    (-1.859e-06,+0.000e+00)    (+2.049e-05,+0.000e+00)    (+2.172e-05,+0.000e+00)    (-1.103e-05,+0.000e+00)    (-1.240e-05,+0.000e+00)    (-8.394e-05,+0.000e+00)    (+1.128e-04,+0.000e+00)    (-8.353e-05,+0.000e+00)    (+1.521e-04,+0.000e+00)    (-1.044e-04,+0.000e+00)    (+4.466e-06,+0.000e+00)    (-5.412e-02,+0.000e+00)    (+4.659e-06,+0.000e+00)    (-3.890e-06,+0.000e+00)    (-2.701e-06,+0.000e+00)    (+6.099e-06,+0.000e+00)    (+8.502e-06,+0.000e+00)    (+9.754e-06,+0.000e+00)    (+6.808e-05,+0.000e+00)    (-2.327e-05,+0.000e+00)    (+3.633e-05,+0.000e+00)    (-7.978e-05,+0.000e+00)    (-1.219e-03,+0.000e+00)    (-7.177e-01,+0.000e+00)    (-1.915e-05,+0.000e+00)    (-1.345e-04,+0.000e+00)    (-1.391e-04,+0.000e+00)    (+9.113e-05,+0.000e+00)    (-4.923e-06,+0.000e+00)    (+4.845e-05,+0.000e+00)    (+2.221e-05,+0.000e+00)    (-1.068e-05,+0.000e+00)    (-2.127e-05,+0.000e+00)    (-2.135e-05,+0.000e+00)    (-9.344e-05,+0.000e+00)    (+3.454e-01,+0.000e+00)    (+1.152e-05,+0.000e+00)    (+2.720e-06,+0.000e+00)    (+2.324e-05,+0.000e+00)    (+3.850e-05,+0.000e+00)    (+7.594e-05,+0.000e+00)    (+6.219e-05,+0.000e+00)    (+5.609e-05,+0.000e+00)    (+4.332e-05,+0.000e+00)    (-6.726e-05,+0.000e+00)    (-7.567e-05,+0.000e+00)    (+5.353e-04,+0.000e+00)    (+6.014e-01,+0.000e+00)    (+2.274e-05,+0.000e+00)    (-2.023e-04,+0.000e+00)    (-2.202e-04,+0.000e+00)    (+1.859e-04,+0.000e+00)    (-1.880e-04,+0.000e+00)    (+3.713e-04,+0.000e+00)    (+2.011e-04,+0.000e+00)    (+1.852e-04,+0.000e+00)    (+5.433e-05,+0.000e+00)    (+5.264e-06,+0.000e+00)
Norm(1.000000000,0.000000000)
vHv(20.726752346,0.000000000)
MF energy: -164.109483306
Diag Pops: 
    (+1.000e+00,+0.000e+00)    (+5.000e-01,+0.000e+00)    (+1.000e+00,+0.000e+00)    (+1.000e+00,+0.000e+00)    (+1.000e+00,+0.000e+00)    (+1.000e+00,+0.000e+00)    (+1.000e+00,+0.000e+00)    (+1.000e+00,+0.000e+00)    (+1.000e+00,+0.000e+00)    (+1.000e+00,+0.000e+00)    (+1.000e+00,+0.000e+00)    (+1.000e+00,+0.000e+00)    (+4.776e-04,+0.000e+00)    (+1.464e-03,+0.000e+00)    (+2.575e-01,+0.000e+00)    (+5.966e-02,+0.000e+00)    (+1.809e-01,+0.000e+00)
Term1 - Ex State Corr:    -0.761713064
Term2 - OOV:              0.022039925
Term2 - check:            0.022039925
Term3 - VVO:              0.000069707
Term3 - check:            0.000069707
Term4 - OV:               -0.000005706
*Total CIS(D) correction: -0.739609137 au -- -20.125726113 eV
*Mp2:                     0.167290137
*Total:                   543.876150010 eV
CIS Vector 569.507508819
Vec
    (-3.231e-02,+0.000e+00)    (+3.187e-05,+0.000e+00)    (+6.187e-07,+0.000e+00)    (-9.084e-05,+0.000e+00)    (+1.181e-04,+0.000e+00)    (+4.215e-05,+0.000e+00)    (-2.233e-05,+0.000e+00)    (+1.516e-05,+0.000e+00)    (-4.792e-05,+0.000e+00)    (-4.297e-08,+0.000e+00)    (+1.984e-05,+0.000e+00)    (-5.504e-06,+0.000e+00)    (+4.673e-02,+0.000e+00)    (-4.513e-05,+0.000e+00)    (+1.088e-06,+0.000e+00)    (+1.364e-04,+0.000e+00)    (-1.745e-04,+0.000e+00)    (-5.732e-05,+0.000e+00)    (+2.775e-05,+0.000e+00)    (+1.445e-06,+0.000e+00)    (+2.786e-05,+0.000e+00)    (-1.926e-06,+0.000e+00)    (-4.183e-05,+0.000e+00)    (+5.360e-06,+0.000e+00)    (+1.549e-01,+0.000e+00)    (-1.732e-04,+0.000e+00)    (-2.699e-06,+0.000e+00)    (+5.008e-05,+0.000e+00)    (-7.675e-05,+0.000e+00)    (-4.300e-05,+0.000e+00)    (+4.506e-05,+0.000e+00)    (+8.316e-07,+0.000e+00)    (+2.540e-05,+0.000e+00)    (+1.320e-05,+0.000e+00)    (+1.651e-06,+0.000e+00)    (+1.981e-05,+0.000e+00)    (-1.804e-02,+0.000e+00)    (+4.488e-06,+0.000e+00)    (-4.956e-06,+0.000e+00)    (-2.895e-05,+0.000e+00)    (+3.390e-05,+0.000e+00)    (+1.287e-05,+0.000e+00)    (-3.262e-05,+0.000e+00)    (+5.898e-06,+0.000e+00)    (-7.790e-06,+0.000e+00)    (-4.961e-05,+0.000e+00)    (-2.218e-05,+0.000e+00)    (+2.854e-06,+0.000e+00)    (+9.861e-01,+0.000e+00)    (-7.816e-04,+0.000e+00)    (+1.871e-05,+0.000e+00)    (-3.027e-05,+0.000e+00)    (+5.560e-05,+0.000e+00)    (+1.201e-04,+0.000e+00)    (-1.849e-04,+0.000e+00)    (-4.737e-05,+0.000e+00)    (-1.035e-04,+0.000e+00)    (-8.570e-05,+0.000e+00)    (-7.001e-05,+0.000e+00)    (-1.096e-04,+0.000e+00)
Norm(1.000000000,0.000000000)
vHv(20.929081257,0.000000000)
MF energy: -163.877510044
Diag Pops: 
    (+5.000e-01,+0.000e+00)    (+1.000e+00,+0.000e+00)    (+1.000e+00,+0.000e+00)    (+1.000e+00,+0.000e+00)    (+1.000e+00,+0.000e+00)    (+1.000e+00,+0.000e+00)    (+1.000e+00,+0.000e+00)    (+1.000e+00,+0.000e+00)    (+1.000e+00,+0.000e+00)    (+1.000e+00,+0.000e+00)    (+1.000e+00,+0.000e+00)    (+1.000e+00,+0.000e+00)    (+5.221e-04,+0.000e+00)    (+1.092e-03,+0.000e+00)    (+1.199e-02,+0.000e+00)    (+1.628e-04,+0.000e+00)    (+4.862e-01,+0.000e+00)
Term1 - Ex State Corr:    -0.589725531
Term2 - OOV:              0.028962813
Term2 - check:            0.028962813
Term3 - VVO:              0.000065986
Term3 - check:            0.000065986
Term4 - OV:               -0.000002238
*Total CIS(D) correction: -0.560698971 au -- -15.257347897 eV
*Mp2:                     0.167290137
*Total:                   554.250160922 eV
Initial Dipole:
   23.1719
   -0.1878
   -1.2810
Natural Occs
       0.       0.       0.       0.       0.   1.0000   1.0000   1.0000   1.0000   1.0000   1.0000   1.0000   1.0000   1.0000   1.0000   1.0000   1.0000
=============================================
Initalization of TDSCF complete
=============================================
---Corr TDHF---
Initial Populations:
    (+1.000e+00,+0.000e+00)    (+1.000e+00,+0.000e+00)    (+1.000e+00,+0.000e+00)    (+1.000e+00,+0.000e+00)    (+1.000e+00,+0.000e+00)    (+1.000e+00,+0.000e+00)    (+1.000e+00,+0.000e+00)    (+1.000e+00,+0.000e+00)    (+1.000e+00,+0.000e+00)    (+1.000e+00,+0.000e+00)    (+1.000e+00,+0.000e+00)    (+1.000e+00,+0.000e+00)                      (0,0)                      (0,0)                      (0,0)                      (0,0)                      (0,0)
Pops:
   1.0000e+00   1.0000e+00   1.0000e+00   9.9999e-01   9.9999e-01   9.9999e-01   9.9999e-01   9.9999e-01   9.9999e-01   9.9999e-01   9.9999e-01   9.9999e-01   2.5503e-05   1.8576e-05   1.4404e-05   1.9042e-05   2.0556e-05
ITER: 0 T: 0.00(fs)  dt 0.00(fs) Hr/Ps: 0.00 - Lpsd/Rem.: 0.00, -nan (min) Tr.Dev: 0.00 Hrm: 0.00 Enrgy: -186.166764 Entr: 0.004770 Fld 0 NFk: 1
Mu
  -9.7932e-06   1.9306e-05  -2.0594e-05
Pops:
   1.0000e+00   1.0000e+00   1.0000e+00   9.9996e-01   9.9997e-01   9.9996e-01   9.9996e-01   9.9994e-01   9.9995e-01   9.9995e-01   9.9995e-01   9.9996e-01   1.0707e-04   7.7978e-05   6.0447e-05   7.9914e-05   8.6240e-05
Pops:
   1.0000   1.0000   1.0000   0.9999   0.9999   0.9999   0.9999   0.9999   0.9999   0.9999   0.9999   0.9999   0.0002   0.0002   0.0001   0.0002   0.0002
Exiting Because MaxIter exceeded. SerialNumber0 Iter 3 of 2
~TDSCF()
Final Eigenvalues
  -20.3203  -20.2793  -11.1783   -1.3779   -1.2657   -0.7793   -0.6230   -0.5740   -0.5430   -0.4316   -0.3661   -0.3558    0.2796    0.4022    0.6438    0.7391    0.9479
Final Populations
    (+1.000e+00,-3.710e-22)    (+1.000e+00,+5.902e-20)    (+1.000e+00,-4.820e-20)    (+9.999e-01,-3.160e-18)    (+9.999e-01,-1.981e-19)    (+9.999e-01,+2.963e-20)    (+9.999e-01,+1.381e-19)    (+9.999e-01,+1.319e-18)    (+9.999e-01,+3.397e-19)    (+9.999e-01,-4.244e-19)    (+9.999e-01,+1.009e-19)    (+9.999e-01,-7.011e-21)    (+2.293e-04,+6.424e-21)    (+1.669e-04,-1.994e-20)    (+1.293e-04,+1.927e-20)    (+1.710e-04,-1.093e-21)    (+1.844e-04,+2.068e-25)
FINAL MEAN FIELD ENERGY: -186.165469
FINAL ENTROPY:0.035104
FINAL HUNDS MEAN FIELD ENERGY: -186.143840
Deleting TDSCF temporaries.
Wall 1 = 1414
Clock 1 = 1427.739990
    ==================================================
             The end of Object-Oriented SCFman        
    ==================================================

 --------------------------------------------------------------

                    Orbital Energies (a.u.)
 --------------------------------------------------------------

 Alpha MOs
 -- Occupied --
-20.320 -20.279 -11.178  -1.378  -1.266  -0.779  -0.623  -0.574
 -0.543  -0.432  -0.366  -0.356
 -- Virtual --
  0.280   0.402   0.644   0.739   0.948
 --------------------------------------------------------------

          Ground-State Mulliken Net Atomic Charges

     Atom                 Charge (a.u.)
  ----------------------------------------
      1 O                    -0.243151
      2 C                     0.249600
      3 O                    -0.232826
      4 H                     0.070519
      5 H                     0.155858
  ----------------------------------------
  Sum of atomic charges =     0.000000

 -----------------------------------------------------------------
                    Cartesian Multipole Moments
 -----------------------------------------------------------------
    Charge (ESU x 10^10)
                 0.0000
    Dipole Moment (Debye)
         X       0.4094      Y       1.0804      Z      -0.4366
       Tot       1.2351
    Quadrupole Moments (Debye-Ang)
        XX     -14.1752     XY       2.9829     YY     -14.0034
        XZ       2.3208     YZ       0.5884     ZZ     -15.8433
    Octopole Moments (Debye-Ang^2)
       XXX     -99.2927    XXY       6.4471    XYY     -30.5890
       YYY      -8.7910    XXZ      18.9288    XYZ       2.3849
       YYZ       5.2957    XZZ     -36.9447    YZZ      -3.0341
       ZZZ      13.8480
    Hexadecapole Moments (Debye-Ang^3)
      XXXX    -511.8415   XXXY       7.5539   XXYY     -79.3773
      XYYY     -23.8063   YYYY     -16.3774   XXXZ     101.3133
      XXYZ      10.9767   XYYZ      15.7606   YYYZ       7.1313
      XXZZ    -107.3078   XYZZ      -9.5008   YYZZ     -11.3537
      XZZZ      43.7224   YZZZ       6.7557   ZZZZ     -50.5334
 -----------------------------------------------------------------
 Mayer SCF Bond Order, atomic valence on the diagonal:

            1           2           3           4           5
    1   2.1534171   1.9417654   0.1435942   0.0467563   0.0213012
    2   1.9417654   3.9065729   1.0355052   0.9139657   0.0153367
    3   0.1435942   1.0355052   2.1264082   0.0212718   0.9260370
    4   0.0467563   0.9139657   0.0212718   0.9950271   0.0130334
    5   0.0213012   0.0153367   0.9260370   0.0130334   0.9757083


Archival summary:
1\1\garamon.crc.nd.edu\SP\HF\STO-3G\212\tnguye23\FriNov416:12:342016FriNov416:12:342016\0\\#,HF,STO-3G,\\0,1\C\H,1,1.09976\O,1,1.21654,2,126.659\O,1,1.34172,2,111.492,3,180,0\H,4,1.21873,1,103.873,2,-136.969,0\\HF=-186.164873\\@

 Total job time:  1413.91s(wall), 1428.08s(cpu) 
 Fri Nov  4 16:12:34 2016

        *************************************************************
        *                                                           *
        *  Thank you very much for using Q-Chem.  Have a nice day.  *
        *                                                           *
        *************************************************************


